
                                 *****************
                                 * O   R   C   A *
                                 *****************

                                            #,                                       
                                            ###                                      
                                            ####                                     
                                            #####                                    
                                            ######                                   
                                           ########,                                 
                                     ,,################,,,,,                         
                               ,,#################################,,                 
                          ,,##########################################,,             
                       ,#########################################, ''#####,          
                    ,#############################################,,   '####,        
                  ,##################################################,,,,####,       
                ,###########''''           ''''###############################       
              ,#####''   ,,,,##########,,,,          '''####'''          '####       
            ,##' ,,,,###########################,,,                        '##       
           ' ,,###''''                  '''############,,,                           
         ,,##''                                '''############,,,,        ,,,,,,###''
      ,#''                                            '''#######################'''  
     '                                                          ''''####''''         
             ,#######,   #######,   ,#######,      ##                                
            ,#'     '#,  ##    ##  ,#'     '#,    #''#        ,####,   ,####,        
            ##       ##  ##   ,#'  ##            #'  '#       #'       #'  '#        
            ##       ##  #######   ##           ,######,      #####,   #    #        
            '#,     ,#'  ##    ##  '#,     ,#' ,#      #,     #,   #   #,  ,#        
             '#######'   ##     ##  '#######'  #'      '#     '####' # '####'        



                #########################################################
                #                        -***-                          #
                #          Department of theory and spectroscopy        #
                #                                                       #
                #                      Frank Neese                      #
                #                                                       #
                #     Directorship, Architecture, Infrastructure        #
                #                    SHARK, DRIVERS                     #
                #        Core code/Algorithms in most modules           #
                #                                                       #
                #        Max Planck Institute fuer Kohlenforschung      #
                #                Kaiser Wilhelm Platz 1                 #
                #                 D-45470 Muelheim/Ruhr                 #
                #                      Germany                          #
                #                                                       #
                #                  All rights reserved                  #
                #                        -***-                          #
                #########################################################


                         Program Version 6.0.0  -   RELEASE  -


 With contributions from (in alphabetic order):
   Daniel Aravena         : Magnetic Suceptibility
   Michael Atanasov       : Ab Initio Ligand Field Theory (pilot matlab implementation)
   Alexander A. Auer      : GIAO ZORA, VPT2 properties, NMR spectrum
   Ute Becker             : All parallelization in ORCA, NUMFREQ, NUMCALC
   Giovanni Bistoni       : ED, misc. LED, open-shell LED, HFLD
   Martin Brehm           : Molecular dynamics
   Dmytro Bykov           : pre 5.0 version of the SCF Hessian
   Marcos Casanova-Páez   : Triplet and SCS-CIS(D). UHF-(DLPNO)-IP/EA/STEOM-CCSD. UHF-CVS-IP/STEOM-CCSD
   Vijay G. Chilkuri      : MRCI spin determinant printing, contributions to CSF-ICE
   Pauline Colinet        : FMM embedding
   Dipayan Datta          : RHF DLPNO-CCSD density
   Achintya Kumar Dutta   : EOM-CC, STEOM-CC
   Nicolas Foglia         : Exact transition moments, OPA infrastructure, MCD improvements
   Dmitry Ganyushin       : Spin-Orbit,Spin-Spin,Magnetic field MRCI
   Miquel Garcia          : C-PCM and meta-GGA Hessian, CCSD/C-PCM, Gaussian charge scheme
   Tiago L. C. Gouveia    : GS-ROHF, GS-ROCIS
   Yang Guo               : DLPNO-NEVPT2, F12-NEVPT2, CIM, IAO-localization
   Andreas Hansen         : Spin unrestricted coupled pair/coupled cluster methods
   Ingolf Harden          : AUTO-CI MPn and infrastructure 
   Benjamin Helmich-Paris : MC-RPA, TRAH-(SCF,CASSCF), AVAS, COSX integrals, SCF dyn. polar.
   Lee Huntington         : MR-EOM, pCC
   Robert Izsak           : Overlap fitted RIJCOSX, COSX-SCS-MP3, EOM
   Riya Kayal             : Wick's Theorem for AUTO-CI, AUTO-CI UHF-CCSDT
   Emily Kempfer          : AUTO-CI, RHF CISDT and CCSDT
   Christian Kollmar      : KDIIS, OOCD, Brueckner-CCSD(T), CCSD density, CASPT2, CASPT2-K, improved NEVPT2
   Axel Koslowski         : Symmetry handling
   Simone Kossmann        : Meta GGA functionals, TD-DFT gradient, OOMP2, (MP2 Hessian; deprecated post 5.0)
   Lucas Lang             : DCDCAS
   Marvin Lechner         : AUTO-CI (C++ implementation), FIC-MRCC
   Spencer Leger          : CASSCF response
   Dagmar Lenk            : GEPOL surface, SMD, ORCA-2-JSON
   Dimitrios Liakos       : Extrapolation schemes; Compound Job, initial MDCI parallelization
   Dimitrios Manganas     : Further ROCIS development; embedding schemes. LFT, Crystal Embedding
   Dimitrios Pantazis     : SARC Basis sets
   Anastasios Papadopoulos: AUTO-CI, single reference methods and gradients
   Taras Petrenko         : pre 6.0 DFT Hessian and TD-DFT gradient, (ASA, deprecated), ECA, 1-Electron XAS/XES, NRVS
   Peter Pinski           : DLPNO-MP2, DLPNO-MP2 Gradient
   Christoph Reimann      : Effective Core Potentials
   Marius Retegan         : Local ZFS, SOC
   Christoph Riplinger    : Optimizer, TS searches, QM/MM, DLPNO-CCSD(T), (RO)-DLPNO pert. Triples
   Michael Roemelt        : Original ROCIS implementation
   Masaaki Saitow         : Open-shell DLPNO-CCSD energy and density
   Barbara Sandhoefer     : DKH picture change effects
   Kantharuban Sivalingam : CASSCF convergence/infrastructure, NEVPT2 and variants, FIC-MRCI
   Bernardo de Souza      : ESD, SOC TD-DFT
   Georgi Stoychev        : AutoAux, RI-MP2 NMR, DLPNO-MP2 response, X2C
   Van Anh Tran           : RI-MP2 g-tensors
   Willem Van den Heuvel  : Paramagnetic NMR
   Zikuan Wang            : NOTCH, Electric field optimization 
   Frank Wennmohs         : Technical directorship and infrastructure
   Hang Xu                : AUTO-CI-Response properties 


 We gratefully acknowledge several colleagues who have allowed us to
 interface, adapt or use parts of their codes:
   Stefan Grimme, W. Hujo, H. Kruse, P. Pracht,  : VdW corrections, initial TS optimization,
                  C. Bannwarth, S. Ehlert,         DFT functionals, gCP, sTDA/sTD-DF
                  L. Wittmann, M. Mueller
   Ed Valeev, F. Pavosevic, A. Kumar             : LibInt (2-el integral package), F12 methods
   Garnet Chan, S. Sharma, J. Yang, R. Olivares  : DMRG
   Ulf Ekstrom                                   : XCFun DFT Library
   Mihaly Kallay                                 : mrcc  (arbitrary order and MRCC methods)
   Frank Weinhold                                : gennbo (NPA and NBO analysis)
   Simon Mueller                                 : openCOSMO-RS
   Christopher J. Cramer and Donald G. Truhlar   : smd solvation model
   Lars Goerigk                                  : TD-DFT with DH, B97 family of functionals
   V. Asgeirsson, H. Jonsson                     : NEB implementation
   FAccTs GmbH                                   : IRC, NEB, NEB-TS, DLPNO-Multilevel, CI-OPT
                                                   MM, QMMM, 2- and 3-layer-ONIOM, Crystal-QMMM,
                                                   LR-CPCM, SF, NACMEs, symmetry and pop. for TD-DFT,
                                                   nearIR, NL-DFT gradient (VV10), updates on ESD,
                                                   ML-optimized integration grids, MBIS, APM,
                                                   GOAT, DOCKER, SOLVATOR, interface openCOSMO-RS
   S Lehtola, MJT Oliveira, MAL Marques          : LibXC Library
   Liviu Ungur et al                             : ANISO software


 Your calculation uses the libint2 library for the computation of 2-el integrals
 For citations please refer to: http://libint.valeyev.net

 Your ORCA version has been built with support for libXC version: 6.2.2
 For citations please refer to: https://libxc.gitlab.io

 This ORCA versions uses:
   CBLAS   interface :  Fast vector & matrix operations
   LAPACKE interface :  Fast linear algebra routines
   SCALAPACK package :  Parallel linear algebra routines
   Shared memory     :  Shared parallel matrices
   BLAS/LAPACK       :  OpenBLAS 0.3.27  USE64BITINT DYNAMIC_ARCH NO_AFFINITY Cooperlake SINGLE_THREADED
        Core in use  :  Cooperlake
   Copyright (c) 2011-2014, The OpenBLAS Project


Your calculation utilizes the atom-pairwise dispersion correction
based on EEQ partial charges (D4)


Warning: RI is on but no J-basis has been assigned. Assigning Def2/J (nothing to worry about!)
================================================================================

----- Orbital basis set information -----
Your calculation utilizes the basis: def2-TZVP
   F. Weigend and R. Ahlrichs, Phys. Chem. Chem. Phys. 7, 3297 (2005).

----- AuxJ basis set information -----
Your calculation utilizes the auxiliary basis: def2/J
   F. Weigend, Phys. Chem. Chem. Phys. 8, 1057 (2006).

================================================================================
                                        WARNINGS
                       Please study these warnings very carefully!
================================================================================


WARNING: Geometry Optimization
  ===> : Switching off AutoStart
         For restart on a previous wavefunction, please use MOREAD

WARNING: Found SCFConvIgnored == true
  ===> : Will try to continue after any unconverged SCF -
         no matter how far from convergence the wavefunction might be.

         Please be very careful with your results!


================================================================================
                                       INPUT FILE
================================================================================
NAME = molecule.inp
|  1> # ORCA Input File generated by Ophysia
|  2> ! PBE0 D4 def2-TZVP OPT FREQ GOAT
|  3> ! TightSCF
|  4> * xyz 1 1
|  5> C          1.00339        0.03022        0.19249
|  6> H          2.02400       -0.08189       -0.15057
|  7> H          0.49307        0.97739        0.07262
|  8> H          0.49303       -0.80486        0.65518
|  9> **                         ****END OF INPUT****
================================================================================

                       *****************************
                       * Geometry Optimization Run *
                       *****************************


                       *********************************
                       *              GOAT             *
                       * Global Optimization Algorithm *
                       *********************************

Geometry optimization settings:
Update method            Update   .... BFGS
Choice of coordinates    CoordSys .... (2022) Redundant Internals
Initial Hessian          InHess   .... Almloef's Model
Max. no of cycles        MaxIter  .... 50

Convergence Tolerances:
Energy Change            TolE     ....  5.0000e-06 Eh
Max. Gradient            TolMAXG  ....  3.0000e-04 Eh/bohr
RMS Gradient             TolRMSG  ....  1.0000e-04 Eh/bohr
Max. Displacement        TolMAXD  ....  4.0000e-03 bohr
RMS Displacement         TolRMSD  ....  2.0000e-03 bohr
Strict Convergence                .... True

------------------------------------------------------------------------------
                        ORCA OPTIMIZATION COORDINATE SETUP
------------------------------------------------------------------------------

The optimization will be done in redundant internal coordinates (2022)
Making redundant internal coordinates   ...  (2022 redundants) done
Evaluating the initial hessian          ...  (Almloef) done
Evaluating the coordinates              ...  done
Calculating the B-matrix                .... done
Calculating the G-matrix                .... done
Diagonalizing the G-matrix              .... done
The first mode is                       ....    1
The number of degrees of freedom        ....    6

    -----------------------------------------------------------------
                    Redundant Internal Coordinates


    -----------------------------------------------------------------
         Definition                    Initial Value    Approx d2E/dq
    -----------------------------------------------------------------
      1. B(H   1,C   0)                  1.0825         0.370098   
      2. B(H   2,C   0)                  1.0826         0.370084   
      3. B(H   3,C   0)                  1.0825         0.370096   
      4. A(H   1,C   0,H   3)          120.0020         0.293357   
      5. A(H   2,C   0,H   3)          120.0011         0.293355   
      6. A(H   1,C   0,H   2)          119.9969         0.293356   
      7. I(H   1,H   3,H   2,C   0)      0.0129         0.022721   
    -----------------------------------------------------------------

Number of atoms                         .... 4
Number of degrees of freedom            .... 7


         *************************************************************
         *                GEOMETRY OPTIMIZATION CYCLE   1            *
         *************************************************************
---------------------------------
CARTESIAN COORDINATES (ANGSTROEM)
---------------------------------
  C      1.003390    0.030220    0.192490
  H      2.024000   -0.081890   -0.150570
  H      0.493070    0.977390    0.072620
  H      0.493030   -0.804860    0.655180

----------------------------
CARTESIAN COORDINATES (A.U.)
----------------------------
  NO LB      ZA    FRAG     MASS         X           Y           Z
   0 C     6.0000    1    12.011    1.896132    0.057108    0.363753
   1 H     1.0000    1     1.008    3.824806   -0.154750   -0.284536
   2 H     1.0000    1     1.008    0.931767    1.846999    0.137232
   3 H     1.0000    1     1.008    0.931692   -1.520965    1.238111

----------------------------------------------
CARTESIAN COORDINATES OF FRAGMENTS (ANGSTROEM)
----------------------------------------------

 FRAGMENT 1 
  C     1.003390    0.030220    0.192490
  H     2.024000   -0.081890   -0.150570
  H     0.493070    0.977390    0.072620
  H     0.493030   -0.804860    0.655180

--------------------------------
INTERNAL COORDINATES (ANGSTROEM)
--------------------------------
 C      0   0   0     0.000000000000     0.00000000     0.00000000
 H      1   0   0     1.082544958789     0.00000000     0.00000000
 H      1   2   0     1.082555461951   119.99688619     0.00000000
 H      1   2   3     1.082546983784   120.00198961   179.98507183

---------------------------
INTERNAL COORDINATES (A.U.)
---------------------------
 C      0   0   0     0.000000000000     0.00000000     0.00000000
 H      1   0   0     2.045713499769     0.00000000     0.00000000
 H      1   2   0     2.045733347868   119.99688619     0.00000000
 H      1   2   3     2.045717326454   120.00198961   179.98507183

---------------------
BASIS SET INFORMATION
---------------------
There are 2 groups of distinct atoms

 Group   1 Type C   : 11s6p2d1f contracted to 5s3p2d1f pattern {62111/411/11/1}
 Group   2 Type H   : 5s1p contracted to 3s1p pattern {311/1}

Atom   0C    basis set group =>   1
Atom   1H    basis set group =>   2
Atom   2H    basis set group =>   2
Atom   3H    basis set group =>   2
---------------------------------
AUXILIARY/J BASIS SET INFORMATION
---------------------------------
There are 2 groups of distinct atoms

 Group   1 Type C   : 12s5p4d2f1g contracted to 6s4p3d1f1g pattern {711111/2111/211/2/1}
 Group   2 Type H   : 5s2p1d contracted to 3s1p1d pattern {311/2/1}

Atom   0C    basis set group =>   1
Atom   1H    basis set group =>   2
Atom   2H    basis set group =>   2
Atom   3H    basis set group =>   2
------------------------------------------------------------------------------
                             ORCA STARTUP CALCULATIONS
                           -- RI-GTO INTEGRALS CHOSEN --
------------------------------------------------------------------------------
------------------------------------------------------------------------------
                   ___                                                        
                  /   \      - P O W E R E D   B Y -                         
                 /     \                                                     
                 |  |  |   _    _      __       _____    __    __             
                 |  |  |  | |  | |    /  \     |  _  \  |  |  /  |          
                  \  \/   | |  | |   /    \    | | | |  |  | /  /          
                 / \  \   | |__| |  /  /\  \   | |_| |  |  |/  /          
                |  |  |   |  __  | /  /__\  \  |    /   |      \           
                |  |  |   | |  | | |   __   |  |    \   |  |\   \          
                \     /   | |  | | |  |  |  |  | |\  \  |  | \   \       
                 \___/    |_|  |_| |__|  |__|  |_| \__\ |__|  \__/        
                                                                              
                      - O R C A' S   B I G   F R I E N D -                    
                                      &                                       
                       - I N T E G R A L  F E E D E R -                       
                                                                              
 v1 FN, 2020, v2 2021, v3 2022-2024                                           
------------------------------------------------------------------------------


----------------------
SHARK INTEGRAL PACKAGE
----------------------

Number of atoms                             ...      4
Number of basis functions                   ...     49
Number of shells                            ...     23
Maximum angular momentum                    ...      3
Integral batch strategy                     ... SHARK/LIBINT Hybrid
RI-J (if used) integral strategy            ... SPLIT-RIJ (Revised 2003 algorithm where possible)
Printlevel                                  ...      1
Contraction scheme used                     ... SEGMENTED contraction
Prescreening option                         ... SCHWARTZ
   Thresh                                   ... 2.500e-11
   Tcut                                     ... 2.500e-12
   Tpresel                                  ... 2.500e-12 
Coulomb Range Separation                    ... NOT USED
Exchange Range Separation                   ... NOT USED
Multipole approximations                    ... NOT USED
Finite Nucleus Model                        ... NOT USED
CABS basis                                  ... NOT available
Auxiliary Coulomb fitting basis             ... AVAILABLE
   # of basis functions in Aux-J            ...     82
   # of shells in Aux-J                     ...     30
   Maximum angular momentum in Aux-J        ...      4
Auxiliary J/K fitting basis                 ... NOT available
Auxiliary Correlation fitting basis         ... NOT available
Auxiliary 'external' fitting basis          ... NOT available

Checking pre-screening integrals            ... done (  0.0 sec) Dimension = 23
Check shell pair data                       ... done (  0.0 sec)
Shell pair information
Shell pair cut-off parameter TPreSel        ...   2.5e-12
Total number of shell pairs                 ...       276
Shell pairs after pre-screening             ...       276
Total number of primitive shell pairs       ...       772
Primitive shell pairs kept                  ...       739
          la=0 lb=0:    105 shell pairs
          la=1 lb=0:     84 shell pairs
          la=1 lb=1:     21 shell pairs
          la=2 lb=0:     28 shell pairs
          la=2 lb=1:     12 shell pairs
          la=2 lb=2:      3 shell pairs
          la=3 lb=0:     14 shell pairs
          la=3 lb=1:      6 shell pairs
          la=3 lb=2:      2 shell pairs
          la=3 lb=3:      1 shell pairs

Calculating one electron integrals          ... done (  0.0 sec)
Calculating RI/J V-Matrix + Cholesky decomp.... done (  0.0 sec)
Calculating Nuclear repulsion               ... done (  0.0 sec) ENN=      9.645522062104 Eh

Diagonalization of the overlap matrix:
Smallest eigenvalue                        ... 3.484e-03
Time for diagonalization                   ...    0.000 sec
Threshold for overlap eigenvalues          ... 1.000e-07
Number of eigenvalues below threshold      ... 0
Time for construction of square roots      ...    0.003 sec
Total time needed                          ...    0.005 sec

-------------------
DFT GRID GENERATION
-------------------

General Integration Accuracy     IntAcc      ... 4.388
Radial Grid Type                 RadialGrid  ... OptM3 with GC (2021)
Angular Grid (max. ang.)         AngularGrid ... 4 (Lebedev-302)
Angular grid pruning method      GridPruning ... 4 (adaptive)
Weight generation scheme         WeightScheme... mBecke (2022)
Basis function cutoff            BFCut       ... 1.0000e-11
Integration weight cutoff        WCut        ... 1.0000e-14
Partially contracted basis set               ... off
Rotationally invariant grid construction     ... off
Angular grids for H and He will be reduced by one unit

Total number of grid points                  ...    16015
Total number of batches                      ...      252
Average number of points per batch           ...       63
Average number of grid points per atom       ...     4004

--------------------
COSX GRID GENERATION
--------------------

GRIDX 1
-------
General Integration Accuracy     IntAcc      ... 3.816
Radial Grid Type                 RadialGrid  ... OptM3 with GC (2021)
Angular Grid (max. ang.)         AngularGrid ... 1 (Lebedev-50)
Angular grid pruning method      GridPruning ... 4 (adaptive)
Weight generation scheme         WeightScheme... mBecke (2022)
Basis function cutoff            BFCut       ... 1.0000e-11
Integration weight cutoff        WCut        ... 1.0000e-14
Partially contracted basis set               ... on
Rotationally invariant grid construction     ... off
Angular grids for H and He will be reduced by one unit

Total number of grid points                  ...     2107
Total number of batches                      ...       19
Average number of points per batch           ...      110
Average number of grid points per atom       ...      527
UseSFitting                                  ... on

GRIDX 2
-------
General Integration Accuracy     IntAcc      ... 4.020
Radial Grid Type                 RadialGrid  ... OptM3 with GC (2021)
Angular Grid (max. ang.)         AngularGrid ... 2 (Lebedev-110)
Angular grid pruning method      GridPruning ... 4 (adaptive)
Weight generation scheme         WeightScheme... mBecke (2022)
Basis function cutoff            BFCut       ... 1.0000e-11
Integration weight cutoff        WCut        ... 1.0000e-14
Partially contracted basis set               ... on
Rotationally invariant grid construction     ... off
Angular grids for H and He will be reduced by one unit

Total number of grid points                  ...     4317
Total number of batches                      ...       35
Average number of points per batch           ...      123
Average number of grid points per atom       ...     1079
UseSFitting                                  ... on

GRIDX 3
-------
General Integration Accuracy     IntAcc      ... 4.338
Radial Grid Type                 RadialGrid  ... OptM3 with GC (2021)
Angular Grid (max. ang.)         AngularGrid ... 3 (Lebedev-194)
Angular grid pruning method      GridPruning ... 4 (adaptive)
Weight generation scheme         WeightScheme... mBecke (2022)
Basis function cutoff            BFCut       ... 1.0000e-11
Integration weight cutoff        WCut        ... 1.0000e-14
Partially contracted basis set               ... on
Rotationally invariant grid construction     ... off
Angular grids for H and He will be reduced by one unit

Total number of grid points                  ...     9504
Total number of batches                      ...       77
Average number of points per batch           ...      123
Average number of grid points per atom       ...     2376
UseSFitting                                  ... on
Initializing property integral containers    ... done (  0.0 sec)

SHARK setup successfully completed in   0.2 seconds

Maximum memory used throughout the entire STARTUP-calculation: 13.7 MB
-------------------------------------------------------------------------------
                                 ORCA GUESS
                   Start orbitals & Density for SCF / CASSCF
-------------------------------------------------------------------------------

------------
SCF SETTINGS
------------
Hamiltonian:
 Density Functional     Method          .... DFT(GTOs)
 Exchange Functional    Exchange        .... PBE
   PBE kappa parameter   XKappa         ....  0.804000
   PBE mue parameter    XMuePBE         ....  0.219520
 Correlation Functional Correlation     .... PBE
   PBE beta parameter  CBetaPBE         ....  0.066725
 LDA part of GGA corr.  LDAOpt          .... PW91-LDA
 Gradients option       PostSCFGGA      .... off
 Hybrid DFT is turned on
   Fraction HF Exchange ScalHFX         ....  0.250000
   Scaling of DF-GGA-X  ScalDFX         ....  0.750000
   Scaling of DF-GGA-C  ScalDFC         ....  1.000000
   Scaling of DF-LDA-C  ScalLDAC        ....  1.000000
   Perturbative correction              ....  0.000000
   NL short-range parameter             ....  6.900000
 RI-approximation to the Coulomb term is turned on
   Number of AuxJ basis functions       .... 82
   RIJ-COSX (HFX calculated with COS-X)).... on


General Settings:
 Integral files         IntName         .... molecule
 Hartree-Fock type      HFTyp           .... RHF
 Total Charge           Charge          ....    1
 Multiplicity           Mult            ....    1
 Number of Electrons    NEL             ....    8
 Basis Dimension        Dim             ....   49
 Nuclear Repulsion      ENuc            ....      9.6455220621 Eh

Convergence Acceleration:
 AO-DIIS                CNVDIIS         .... on
   Start iteration      DIISMaxIt       ....    12
   Startup error        DIISStart       ....  0.200000
   # of expansion vecs  DIISMaxEq       ....     5
   Bias factor          DIISBfac        ....   1.050
   Max. coefficient     DIISMaxC        ....  10.000
 MO-DIIS                CNVKDIIS        .... off
 Trust-Rad. Augm. Hess. CNVTRAH         .... auto
   Auto Start mean grad. ratio tolernc. ....  1.125000
   Auto Start start iteration           ....    50
   Auto Start num. interpolation iter.  ....    10
   Max. Number of Micro iterations      ....    24
   Max. Number of Macro iterations      .... Maxiter - #DIIS iter
   Number of Davidson start vectors     ....     2
   Converg. threshold    (grad. norm)   ....   1.000e-05
   Grad. Scal. Fac. for Micro threshold ....   0.100
   Minimum threshold for Micro iter.    ....   1.000e-02
   NR start threshold (gradient norm)   ....   1.000e-04
   Initial trust radius                 ....   0.400
   Minimum AH scaling param. (alpha)    ....   1.000
   Maximum AH scaling param. (alpha)    .... 1000.000
   Quad. conv. algorithm                .... NR
   White noise on init. David. guess    .... on
   Maximum white noise                  ....   0.010
   Pseudo random numbers                .... off
   Inactive MOs                         .... canonical
   Orbital update algorithm             .... Taylor
   Preconditioner                       .... Diag
   Full preconditioner red. dimension   ....   250
 SOSCF                  CNVSOSCF        .... on
   Start iteration      SOSCFMaxIt      ....   150
   Startup grad/error   SOSCFStart      ....  0.003300
   Hessian update       SOSCFHessUp     .... L-BFGS
 Level Shifting         CNVShift        .... on
   Level shift para.    LevelShift      ....    0.2500
   Turn off err/grad.   ShiftErr        ....    0.0010
 Zerner damping         CNVZerner       .... off
 Static damping         CNVDamp         .... on
   Fraction old density DampFac         ....    0.7000
   Max. Damping (<1)    DampMax         ....    0.9800
   Min. Damping (>=0)   DampMin         ....    0.0000
   Turn off err/grad.   DampErr         ....    0.1000

SCF Procedure:
 Maximum # iterations   MaxIter         ....   125
 SCF integral mode      SCFMode         .... Direct
   Integral package                     .... SHARK and LIBINT hybrid scheme
 Reset frequency        DirectResetFreq ....    20
 Integral Threshold     Thresh          ....  2.500e-11 Eh
 Primitive CutOff       TCut            ....  2.500e-12 Eh

Convergence Tolerance:
 Convergence Check Mode ConvCheckMode   .... Total+1el-Energy
 Convergence forced     ConvForced      .... -1
 Energy Change          TolE            ....  1.000e-08 Eh
 1-El. energy change                    ....  1.000e-05 Eh
 Orbital Gradient       TolG            ....  1.000e-05
 Orbital Rotation angle TolX            ....  1.000e-05
 DIIS Error             TolErr          ....  5.000e-07

------------------------------
INITIAL GUESS: MODEL POTENTIAL
------------------------------
Loading Hartree-Fock densities                     ... done
Calculating cut-offs                               ... done
Initializing the effective Hamiltonian             ... done
Setting up the integral package (SHARK)            ... done
Starting the Coulomb interaction                   ... done (   0.0 sec)
Making the grid                                    ... done (   0.0 sec)
Mapping shells                                     ... done
Starting the XC term evaluation                    ... done (   0.0 sec)
  promolecular density results
     # of electrons  =      8.998160815
     EX              =     -5.931008038
     EC              =     -0.258707802
     EX+EC           =     -6.189715840
Transforming the Hamiltonian                       ... done (   0.0 sec)
Diagonalizing the Hamiltonian                      ... done (   0.0 sec)
Back transforming the eigenvectors                 ... done (   0.0 sec)
Now organizing SCF variables                       ... done
                      ------------------
                      INITIAL GUESS DONE (   0.0 sec)
                      ------------------
             **** ENERGY FILE WAS UPDATED (molecule.en.tmp) ****
Finished Guess after   0.1 sec
Maximum memory used throughout the entire GUESS-calculation: 7.2 MB

-------------------------------------------------------------------------------------------
                                      ORCA LEAN-SCF
                              memory conserving SCF solver
-------------------------------------------------------------------------------------------

----------------------------------------D-I-I-S--------------------------------------------
Iteration    Energy (Eh)           Delta-E    RMSDP     MaxDP     DIISErr   Damp  Time(sec)
-------------------------------------------------------------------------------------------
               ***  Starting incremental Fock matrix formation  ***
    1    -39.4286419308554485     0.00e+00  9.03e-04  1.18e-02  3.71e-02  0.700   0.2
    2    -39.4303131149201675    -1.67e-03  7.84e-04  1.17e-02  2.22e-02  0.700   0.3
                               ***Turning on AO-DIIS***
    3    -39.4312993420502167    -9.86e-04  5.46e-04  9.83e-03  1.23e-02  0.700   0.2
    4    -39.4319164247996099    -6.17e-04  1.27e-03  2.31e-02  8.25e-03  0.000   0.2
                              *** Initializing SOSCF ***
---------------------------------------S-O-S-C-F--------------------------------------
Iteration    Energy (Eh)           Delta-E    RMSDP     MaxDP     MaxGrad    Time(sec)
--------------------------------------------------------------------------------------
    5    -39.4332900230287606    -1.37e-03  3.53e-05  2.95e-04  6.65e-04     0.3
               *** Restarting incremental Fock matrix formation ***
    6    -39.4332919991436910    -1.98e-06  1.10e-05  1.01e-04  3.79e-05     0.2
    7    -39.4332920109434468    -1.18e-08  2.42e-06  3.27e-05  1.76e-05     0.2
    8    -39.4332920137197718    -2.78e-09  7.22e-07  6.18e-06  5.63e-06     0.3
                 **** Energy Check signals convergence ****

               *****************************************************
               *                     SUCCESS                       *
               *           SCF CONVERGED AFTER   8 CYCLES          *
               *****************************************************

Recomputing exchange energy using gridx3       ... done (    0.140 sec)
Old exchange energy                            :     -1.484545173 Eh
New exchange energy                            :     -1.484549198 Eh
Exchange energy change after final integration :     -0.000004025 Eh
Total energy after final integration           :    -39.433296038 Eh
             **** ENERGY FILE WAS UPDATED (molecule.en.tmp) ****

----------------
TOTAL SCF ENERGY
----------------

Total Energy       :        -39.43329603847799 Eh           -1073.03454 eV

Components:
Nuclear Repulsion  :          9.64552206210391 Eh             262.46800 eV
Electronic Energy  :        -49.07881407582368 Eh           -1335.50243 eV
One Electron Energy:        -68.13128804023046 Eh           -1853.94660 eV
Two Electron Energy:         19.05247396440678 Eh             518.44417 eV

Virial components:
Potential Energy   :        -78.72244415344285 Eh           -2142.14661 eV
Kinetic Energy     :         39.28914811496486 Eh            1069.11207 eV
Virial Ratio       :          2.00366889918538

DFT components:
N(Alpha)           :        4.000000055202 electrons
N(Beta)            :        4.000000055202 electrons
N(Total)           :        8.000000110404 electrons
E(X)               :       -4.413413930244 Eh       
E(C)               :       -0.229377744660 Eh       
E(XC)              :       -4.642791674904 Eh       

---------------
SCF CONVERGENCE
---------------

  Last Energy change         ...    2.7763e-09  Tolerance :   1.0000e-08
  Last MAX-Density change    ...    6.1849e-06  Tolerance :   1.0000e-07
  Last RMS-Density change    ...    7.2237e-07  Tolerance :   5.0000e-09
  Last DIIS Error            ...    6.6471e-04  Tolerance :   5.0000e-07
  Last Orbital Gradient      ...    5.6303e-06  Tolerance :   1.0000e-05
  Last Orbital Rotation      ...    2.7633e-06  Tolerance :   1.0000e-05


----------------
ORBITAL ENERGIES
----------------

  NO   OCC          E(Eh)            E(eV) 
   0   2.0000     -10.683421      -290.7107 
   1   2.0000      -1.068220       -29.0677 
   2   2.0000      -0.799571       -21.7574 
   3   2.0000      -0.799560       -21.7571 
   4   0.0000      -0.475726       -12.9452 
   5   0.0000      -0.178121        -4.8469 
   6   0.0000      -0.122785        -3.3412 
   7   0.0000      -0.122781        -3.3411 
   8   0.0000      -0.038210        -1.0397 
   9   0.0000      -0.038201        -1.0395 
  10   0.0000      -0.008513        -0.2317 
  11   0.0000      -0.005844        -0.1590 
  12   0.0000       0.185682         5.0527 
  13   0.0000       0.208617         5.6767 
  14   0.0000       0.208624         5.6769 
*Only the first 10 virtual orbitals were printed.

                    ********************************
                    * MULLIKEN POPULATION ANALYSIS *
                    ********************************

-------------------------
MULLIKEN FRAGMENT CHARGES
-------------------------
 Fragment   0 :   1.000000
Sum of fragment charges:    1.0000000

---------------------------------
MULLIKEN FRAGMENT OVERLAP CHARGES
---------------------------------
                  0    
      0      10.165648

-----------------------
MULLIKEN ATOMIC CHARGES
-----------------------
   0 C :    0.163595
   1 H :    0.278776
   2 H :    0.278845
   3 H :    0.278783
Sum of atomic charges:    1.0000000

--------------------------------
MULLIKEN REDUCED ORBITAL CHARGES
--------------------------------
  0 C s       :     3.441508  s :     3.441508
      pz      :     0.233793  p :     2.374632
      px      :     1.055390
      py      :     1.085450
      dz2     :     0.002365  d :     0.018516
      dxz     :     0.002402
      dyz     :     0.002173
      dx2y2   :     0.005692
      dxy     :     0.005885
      f0      :     0.000098  f :     0.001749
      f+1     :     0.000039
      f-1     :     0.000097
      f+2     :     0.000194
      f-2     :     0.000246
      f+3     :     0.001042
      f-3     :     0.000033

  1 H s       :     0.698612  s :     0.698612
      pz      :     0.002256  p :     0.022612
      px      :     0.016586
      py      :     0.003770

  2 H s       :     0.698547  s :     0.698547
      pz      :     0.000959  p :     0.022607
      px      :     0.006780
      py      :     0.014868

  3 H s       :     0.698605  s :     0.698605
      pz      :     0.003465  p :     0.022612
      px      :     0.006782
      py      :     0.012365



                     *******************************
                     * LOEWDIN POPULATION ANALYSIS *
                     *******************************

------------------------
LOEWDIN FRAGMENT CHARGES
------------------------
 Fragment   0 :   1.000000

----------------------------
LOEWDIN FRAGMENT BOND ORDERS
----------------------------
                  0    
      0      13.993079

----------------------
LOEWDIN ATOMIC CHARGES
----------------------
   0 C :    0.506306
   1 H :    0.164559
   2 H :    0.164573
   3 H :    0.164562

-------------------------------
LOEWDIN REDUCED ORBITAL CHARGES
-------------------------------
  0 C s       :     3.063856  s :     3.063856
      pz      :     0.232742  p :     2.363963
      px      :     1.050659
      py      :     1.080563
      dz2     :     0.002688  d :     0.060091
      dxz     :     0.005939
      dyz     :     0.005846
      dx2y2   :     0.022622
      dxy     :     0.022995
      f0      :     0.001214  f :     0.005784
      f+1     :     0.000501
      f-1     :     0.000692
      f+2     :     0.000915
      f-2     :     0.000758
      f+3     :     0.001605
      f-3     :     0.000099

  1 H s       :     0.762736  s :     0.762736
      pz      :     0.007250  p :     0.072705
      px      :     0.052673
      py      :     0.012783

  2 H s       :     0.762724  s :     0.762724
      pz      :     0.003209  p :     0.072703
      px      :     0.022132
      py      :     0.047362

  3 H s       :     0.762733  s :     0.762733
      pz      :     0.011015  p :     0.072704
      px      :     0.022134
      py      :     0.039555



                      *****************************
                      * MAYER POPULATION ANALYSIS *
                      *****************************

  NA   - Mulliken gross atomic population
  ZA   - Total nuclear charge
  QA   - Mulliken gross atomic charge
  VA   - Mayer's total valence
  BVA  - Mayer's bonded valence
  FA   - Mayer's free valence

  ATOM       NA         ZA         QA         VA         BVA        FA
  0 C      5.8364     6.0000     0.1636     2.7231     2.7231    -0.0000
  1 H      0.7212     1.0000     0.2788     0.9190     0.9190    -0.0000
  2 H      0.7212     1.0000     0.2788     0.9190     0.9190    -0.0000
  3 H      0.7212     1.0000     0.2788     0.9190     0.9190     0.0000

  Mayer bond orders larger than 0.100000
B(  0-C ,  1-H ) :   0.9077 B(  0-C ,  2-H ) :   0.9077 B(  0-C ,  3-H ) :   0.9077 


-------
TIMINGS
-------

Total SCF time: 0 days 0 hours 0 min 2 sec 

Total time                  ....       2.052 sec
Sum of individual times     ....       1.997 sec  ( 97.3%)

SCF preparation             ....       0.074 sec  (  3.6%)
Fock matrix formation       ....       1.678 sec  ( 81.8%)
  Startup                   ....       0.047 sec  (  2.8% of F)
  Split-RI-J                ....       0.099 sec  (  5.9% of F)
  Chain of spheres X        ....       0.747 sec  ( 44.5% of F)
  XC integration            ....       0.309 sec  ( 18.4% of F)
    Basis function eval.    ....       0.105 sec  ( 33.9% of XC)
    Density eval.           ....       0.034 sec  ( 11.1% of XC)
    XC-Functional eval.     ....       0.041 sec  ( 13.1% of XC)
    XC-Potential eval.      ....       0.053 sec  ( 17.2% of XC)
Diagonalization             ....       0.000 sec  (  0.0%)
Density matrix formation    ....       0.073 sec  (  3.6%)
Total Energy calculation    ....       0.026 sec  (  1.3%)
Population analysis         ....       0.018 sec  (  0.9%)
Orbital Transformation      ....       0.017 sec  (  0.8%)
Orbital Orthonormalization  ....       0.000 sec  (  0.0%)
DIIS solution               ....       0.080 sec  (  3.9%)
SOSCF solution              ....       0.030 sec  (  1.5%)
Finished LeanSCF after   2.1 sec

Maximum memory used throughout the entire LEANSCF-calculation: 6.3 MB

------------------------------------------------------------------------------
                         ORCA PROPERTY INTEGRAL CALCULATIONS
------------------------------------------------------------------------------

GBWName                                   ... molecule.gbw
Number of atoms                           ...      4
Number of basis functions                 ...     49
Max core memory                           ...   1024 MB

Dipole integrals                          ... YES
Quadrupole integrals                      ...  NO
Linear momentum integrals                 ...  NO
Angular momentum integrals                ...  NO
Higher moments length integrals           ...  NO
Higher moments velocity integrals         ...  NO
Kinetic energy integrals                  ...  NO
GIAO right hand sides                     ...  NO
GIAO dipole derivative integrals          ...  NO
SOC integrals                             ...  NO
EPR diamagnetic integrals (GIAO)          ...  NO
EPR gauge integrals                       ...  NO
Field gradient integrals                  ...  NO (   0 nuclei)
Spin-dipole/Fermi contact integrals       ...  NO (   0 nuclei)
Contact density integrals                 ...  NO (   0 nuclei)
Nucleus-orbit integrals                   ...  NO (   0 nuclei)
Geometric perturbations                   ...  NO (   4 nuclei)

Choice of electric origin   ... Center of mass
Position of electric origin ... (  1.8961,  0.0571,  0.3637) 
Choice of magnetic origin   ... GIAO
Position of magnetic origin ... (  0.0000,  0.0000,  0.0000) 

Calculating integrals                     ... Electric Dipole (Length)     done (  0.0 sec)

Property integrals calculated in   0.0 sec

Maximum memory used throughout the entire PROPINT-calculation: 7.3 MB


-------------------------------------------------------------------------------
                          DFT DISPERSION CORRECTION                            
                                                                               
                                DFTD4 V3.4.0                                   
-------------------------------------------------------------------------------
The PBE0 functional is recognized
Active option DFTDOPT                   ...         5   

-------------------------   ----------------
Dispersion correction           -0.000242285
-------------------------   ----------------


-------------------------   --------------------
FINAL SINGLE POINT ENERGY       -39.433538323312
-------------------------   --------------------

------------------------------------------------------------------------------
                         ORCA SCF GRADIENT CALCULATION
------------------------------------------------------------------------------

Nuc. rep. gradient        (SHARK) ... done (  0.0 sec)
HCore & Overlap gradient  (SHARK) ... done (  0.0 sec)
Split-RIJ-J gradient      (SHARK) ... done (  0.1 sec)
COSX-gradient                     ... done (  0.6 sec)
XC gradient                       ... done (  0.1 sec)
Dispersion correction             ... done (  0.0 sec)

-------------------
DISPERSION GRADIENT
-------------------

   1   C   :   -0.000000001   -0.000000000   -0.000000002
   2   H   :    0.000000028   -0.000000003   -0.000000008
   3   H   :   -0.000000014    0.000000026   -0.000000002
   4   H   :   -0.000000013   -0.000000022    0.000000013

Difference to translation invariance:
           :   -0.0000000000   -0.0000000000    0.0000000000

Difference to rotation invariance:
           :   -0.0000000000    0.0000000000    0.0000000000

Norm of the Dispersion gradient    ...    0.0000000507
RMS gradient                       ...    0.0000000146
MAX gradient                       ...    0.0000000279

------------------
CARTESIAN GRADIENT
------------------

   1   C   :    0.000005957   -0.000002325    0.000026467
   2   H   :   -0.006813048    0.000749898    0.002278783
   3   H   :    0.003402994   -0.006318454    0.000792194
   4   H   :    0.003404097    0.005570882   -0.003097444

Difference to translation invariance:
           :   -0.0000000000   -0.0000000000    0.0000000000

Difference to rotation invariance:
           :    0.0000070993    0.0000040096    0.0000043465

Norm of the Cartesian gradient     ...    0.0125108406
RMS gradient                       ...    0.0036115686
MAX gradient                       ...    0.0068130480

-------
TIMINGS
-------

Total SCF gradient time     ....        0.840 sec

Densities                   ....       0.000 sec  (  0.0%)
One electron gradient       ....       0.006 sec  (  0.7%)
RI-J Coulomb gradient       ....       0.066 sec  (  7.8%)
COSX gradient               ....       0.623 sec  ( 74.1%)
XC gradient                 ....       0.107 sec  ( 12.7%)

Maximum memory used throughout the entire SCFGRAD-calculation: 25.7 MB
------------------------------------------------------------------------------
                         ORCA GEOMETRY RELAXATION STEP
------------------------------------------------------------------------------

Reading the OPT-File                    .... done
Getting information on internals        .... done
Copying old internal coords+grads       .... done
Making the new internal coordinates     .... (2022 redundants) done
Validating the new internal coordinates .... (2022 redundants) done
Calculating the B-matrix                .... done
Calculating the G,G- and P matrices     .... done
Transforming gradient to internals      .... done
Projecting the internal gradient        .... done
Number of atoms                         ....   4
Number of internal coordinates          ....   7
Current Energy                          ....   -39.433538323 Eh
Current gradient norm                   ....     0.012510841 Eh/bohr
Maximum allowed component of the step   ....  0.300
Current trust radius                    ....  0.300
Evaluating the initial hessian          ....  (Almloef) done
Projecting the Hessian                  .... done
Forming the augmented Hessian           .... done
Diagonalizing the augmented Hessian     .... done
Last element of RFO vector              ....  0.999430109
Lowest eigenvalues of augmented Hessian:
 -0.000422454  0.022721149  0.293355321  0.293356414  0.370088225
Length of the computed step             ....  0.033775098
The final length of the internal step   ....  0.033775098
Converting the step to Cartesian space:
 Initial RMS(Int)=    0.0127657873
Transforming coordinates:
 Iter   0:  RMS(Cart)=    0.0097483286 RMS(Int)=    0.0127657678
done
Storing new coordinates                 .... done

                                .--------------------.
          ----------------------|Geometry convergence|-------------------------
          Item                value                   Tolerance       Converged
          ---------------------------------------------------------------------
          RMS gradient        0.0047286435            0.0001000000      NO
          MAX gradient        0.0072261101            0.0003000000      NO
          RMS step            0.0127657873            0.0020000000      NO
          MAX step            0.0195027202            0.0040000000      NO
          ........................................................
          Max(Bonds)      0.0103      Max(Angles)    0.00
          Max(Dihed)        0.00      Max(Improp)    0.04
          ---------------------------------------------------------------------

The optimization has not yet converged - more geometry cycles are needed


    ---------------------------------------------------------------------------
                         Redundant Internal Coordinates
                            (Angstroem and degrees)

        Definition                    Value    dE/dq     Step     New-Value
    ----------------------------------------------------------------------------
     1. B(H   1,C   0)                1.0825 -0.007223  0.0103    1.0929   
     2. B(H   2,C   0)                1.0826 -0.007220  0.0103    1.0929   
     3. B(H   3,C   0)                1.0825 -0.007226  0.0103    1.0929   
     4. A(H   1,C   0,H   3)          120.00  0.000003   -0.00    120.00   
     5. A(H   2,C   0,H   3)          120.00  0.000002   -0.00    120.00   
     6. A(H   1,C   0,H   2)          120.00 -0.000005    0.00    120.00   
     7. I(H   1,H   3,H   2,C   0)      0.01  0.000018   -0.04     -0.03   
    ----------------------------------------------------------------------------

Geometry step timings:
Preparation and reading OPT file:      0.001 s ( 7.911 %)
Internal coordinates            :      0.000 s ( 0.389 %)
B/P matrices and projection     :      0.000 s ( 1.355 %)
Hessian update/contruction      :      0.007 s (72.610 %)
Making the step                 :      0.000 s ( 0.620 %)
Converting the step to Cartesian:      0.000 s ( 0.263 %)
Storing new data                :      0.000 s ( 4.759 %)
Checking convergence            :      0.000 s ( 0.011 %)
Final printing                  :      0.001 s (12.040 %)
Total time                      :      0.010 s

Time for energy+gradient        :      3.514 s
Time for complete geometry iter :      3.722 s

         *************************************************************
         *                GEOMETRY OPTIMIZATION CYCLE   2            *
         *************************************************************
---------------------------------
CARTESIAN COORDINATES (ANGSTROEM)
---------------------------------
  C      1.003320    0.030162    0.192296
  H      2.033751   -0.082941   -0.153774
  H      0.488227    0.986435    0.071544
  H      0.488191   -0.812796    0.659653

----------------------------
CARTESIAN COORDINATES (A.U.)
----------------------------
  NO LB      ZA    FRAG     MASS         X           Y           Z
   0 C     6.0000    1    12.011    1.896001    0.056998    0.363387
   1 H     1.0000    1     1.008    3.843233   -0.156737   -0.290590
   2 H     1.0000    1     1.008    0.922616    1.864092    0.135199
   3 H     1.0000    1     1.008    0.922547   -1.535961    1.246564

----------------------------------------------
CARTESIAN COORDINATES OF FRAGMENTS (ANGSTROEM)
----------------------------------------------

 FRAGMENT 1 
  C     1.003320    0.030162    0.192296
  H     2.033751   -0.082941   -0.153774
  H     0.488227    0.986435    0.071544
  H     0.488191   -0.812796    0.659653

--------------------------------
INTERNAL COORDINATES (ANGSTROEM)
--------------------------------
 C      0   0   0     0.000000000000     0.00000000     0.00000000
 H      1   0   0     1.092860931506     0.00000000     0.00000000
 H      1   2   0     1.092867683740   119.99782671     0.00000000
 H      1   2   3     1.092867378831   120.00143951   180.03702527

---------------------------
INTERNAL COORDINATES (A.U.)
---------------------------
 C      0   0   0     0.000000000000     0.00000000     0.00000000
 H      1   0   0     2.065207863008     0.00000000     0.00000000
 H      1   2   0     2.065220622881   119.99782671     0.00000000
 H      1   2   3     2.065220046687   120.00143951   180.03702527

------------------------------------------------------------------------------
                   ___                                                        
                  /   \      - P O W E R E D   B Y -                         
                 /     \                                                     
                 |  |  |   _    _      __       _____    __    __             
                 |  |  |  | |  | |    /  \     |  _  \  |  |  /  |          
                  \  \/   | |  | |   /    \    | | | |  |  | /  /          
                 / \  \   | |__| |  /  /\  \   | |_| |  |  |/  /          
                |  |  |   |  __  | /  /__\  \  |    /   |      \           
                |  |  |   | |  | | |   __   |  |    \   |  |\   \          
                \     /   | |  | | |  |  |  |  | |\  \  |  | \   \       
                 \___/    |_|  |_| |__|  |__|  |_| \__\ |__|  \__/        
                                                                              
                      - O R C A' S   B I G   F R I E N D -                    
                                      &                                       
                       - I N T E G R A L  F E E D E R -                       
                                                                              
 v1 FN, 2020, v2 2021, v3 2022-2024                                           
------------------------------------------------------------------------------


----------------------
SHARK INTEGRAL PACKAGE
----------------------

Number of atoms                             ...      4
Number of basis functions                   ...     49
Number of shells                            ...     23
Maximum angular momentum                    ...      3
Integral batch strategy                     ... SHARK/LIBINT Hybrid
RI-J (if used) integral strategy            ... SPLIT-RIJ (Revised 2003 algorithm where possible)
Printlevel                                  ...      1
Contraction scheme used                     ... SEGMENTED contraction
Prescreening option                         ... SCHWARTZ
   Thresh                                   ... 2.500e-11
   Tcut                                     ... 2.500e-12
   Tpresel                                  ... 2.500e-12 
Coulomb Range Separation                    ... NOT USED
Exchange Range Separation                   ... NOT USED
Multipole approximations                    ... NOT USED
Finite Nucleus Model                        ... NOT USED
CABS basis                                  ... NOT available
Auxiliary Coulomb fitting basis             ... AVAILABLE
   # of basis functions in Aux-J            ...     82
   # of shells in Aux-J                     ...     30
   Maximum angular momentum in Aux-J        ...      4
Auxiliary J/K fitting basis                 ... NOT available
Auxiliary Correlation fitting basis         ... NOT available
Auxiliary 'external' fitting basis          ... NOT available

Checking pre-screening integrals            ... done (  0.0 sec) Dimension = 23
Check shell pair data                       ... done (  0.0 sec)
Shell pair information
Shell pair cut-off parameter TPreSel        ...   2.5e-12
Total number of shell pairs                 ...       276
Shell pairs after pre-screening             ...       276
Total number of primitive shell pairs       ...       772
Primitive shell pairs kept                  ...       739
          la=0 lb=0:    105 shell pairs
          la=1 lb=0:     84 shell pairs
          la=1 lb=1:     21 shell pairs
          la=2 lb=0:     28 shell pairs
          la=2 lb=1:     12 shell pairs
          la=2 lb=2:      3 shell pairs
          la=3 lb=0:     14 shell pairs
          la=3 lb=1:      6 shell pairs
          la=3 lb=2:      2 shell pairs
          la=3 lb=3:      1 shell pairs

Calculating one electron integrals          ... done (  0.0 sec)
Calculating RI/J V-Matrix + Cholesky decomp.... done (  0.0 sec)
Calculating Nuclear repulsion               ... done (  0.0 sec) ENN=      9.554472337016 Eh

Diagonalization of the overlap matrix:
Smallest eigenvalue                        ... 3.593e-03
Time for diagonalization                   ...    0.001 sec
Threshold for overlap eigenvalues          ... 1.000e-07
Number of eigenvalues below threshold      ... 0
Time for construction of square roots      ...    0.005 sec
Total time needed                          ...    0.008 sec

-------------------
DFT GRID GENERATION
-------------------

General Integration Accuracy     IntAcc      ... 4.388
Radial Grid Type                 RadialGrid  ... OptM3 with GC (2021)
Angular Grid (max. ang.)         AngularGrid ... 4 (Lebedev-302)
Angular grid pruning method      GridPruning ... 4 (adaptive)
Weight generation scheme         WeightScheme... mBecke (2022)
Basis function cutoff            BFCut       ... 1.0000e-11
Integration weight cutoff        WCut        ... 1.0000e-14
Partially contracted basis set               ... off
Rotationally invariant grid construction     ... off
Angular grids for H and He will be reduced by one unit

Total number of grid points                  ...    16018
Total number of batches                      ...      252
Average number of points per batch           ...       63
Average number of grid points per atom       ...     4004

--------------------
COSX GRID GENERATION
--------------------

GRIDX 1
-------
General Integration Accuracy     IntAcc      ... 3.816
Radial Grid Type                 RadialGrid  ... OptM3 with GC (2021)
Angular Grid (max. ang.)         AngularGrid ... 1 (Lebedev-50)
Angular grid pruning method      GridPruning ... 4 (adaptive)
Weight generation scheme         WeightScheme... mBecke (2022)
Basis function cutoff            BFCut       ... 1.0000e-11
Integration weight cutoff        WCut        ... 1.0000e-14
Partially contracted basis set               ... on
Rotationally invariant grid construction     ... off
Angular grids for H and He will be reduced by one unit

Total number of grid points                  ...     2107
Total number of batches                      ...       19
Average number of points per batch           ...      110
Average number of grid points per atom       ...      527
UseSFitting                                  ... on

GRIDX 2
-------
General Integration Accuracy     IntAcc      ... 4.020
Radial Grid Type                 RadialGrid  ... OptM3 with GC (2021)
Angular Grid (max. ang.)         AngularGrid ... 2 (Lebedev-110)
Angular grid pruning method      GridPruning ... 4 (adaptive)
Weight generation scheme         WeightScheme... mBecke (2022)
Basis function cutoff            BFCut       ... 1.0000e-11
Integration weight cutoff        WCut        ... 1.0000e-14
Partially contracted basis set               ... on
Rotationally invariant grid construction     ... off
Angular grids for H and He will be reduced by one unit

Total number of grid points                  ...     4319
Total number of batches                      ...       35
Average number of points per batch           ...      123
Average number of grid points per atom       ...     1080
UseSFitting                                  ... on

GRIDX 3
-------
General Integration Accuracy     IntAcc      ... 4.338
Radial Grid Type                 RadialGrid  ... OptM3 with GC (2021)
Angular Grid (max. ang.)         AngularGrid ... 3 (Lebedev-194)
Angular grid pruning method      GridPruning ... 4 (adaptive)
Weight generation scheme         WeightScheme... mBecke (2022)
Basis function cutoff            BFCut       ... 1.0000e-11
Integration weight cutoff        WCut        ... 1.0000e-14
Partially contracted basis set               ... on
Rotationally invariant grid construction     ... off
Angular grids for H and He will be reduced by one unit

Total number of grid points                  ...     9504
Total number of batches                      ...       77
Average number of points per batch           ...      123
Average number of grid points per atom       ...     2376
UseSFitting                                  ... on
Initializing property integral containers    ... done (  0.0 sec)

SHARK setup successfully completed in   0.2 seconds

Maximum memory used throughout the entire STARTUP-calculation: 13.7 MB
Occupation numbers will be reassigned to an Aufbau configuration
             **** ENERGY FILE WAS UPDATED (molecule.en.tmp) ****
Finished Guess after   0.1 sec
Maximum memory used throughout the entire GUESS-calculation: 7.2 MB
----------------------------------------D-I-I-S--------------------------------------------
Iteration    Energy (Eh)           Delta-E    RMSDP     MaxDP     DIISErr   Damp  Time(sec)
-------------------------------------------------------------------------------------------
               ***  Starting incremental Fock matrix formation  ***
    1    -39.4334527439671234     0.00e+00  7.56e-05  1.27e-03  4.30e-03  0.700   0.2
                              *** Initializing SOSCF ***
---------------------------------------S-O-S-C-F--------------------------------------
Iteration    Energy (Eh)           Delta-E    RMSDP     MaxDP     MaxGrad    Time(sec)
--------------------------------------------------------------------------------------
    2    -39.4334699049620383    -1.72e-05  1.91e-04  3.14e-03  3.06e-03     0.2
               *** Restarting incremental Fock matrix formation ***
    3    -39.4335042230142037    -3.43e-05  6.96e-05  1.27e-03  4.92e-04     0.3
    4    -39.4335051088633506    -8.86e-07  2.83e-05  4.63e-04  2.96e-04     0.3
    5    -39.4335060658996497    -9.57e-07  4.21e-07  8.79e-06  3.36e-06     0.2
    6    -39.4335060663057320    -4.06e-10  5.29e-08  1.15e-06  3.81e-07     0.2
                 **** Energy Check signals convergence ****

               *****************************************************
               *                     SUCCESS                       *
               *           SCF CONVERGED AFTER   6 CYCLES          *
               *****************************************************

Recomputing exchange energy using gridx3       ... done (    0.151 sec)
Old exchange energy                            :     -1.481622698 Eh
New exchange energy                            :     -1.481626968 Eh
Exchange energy change after final integration :     -0.000004270 Eh
Total energy after final integration           :    -39.433510336 Eh
             **** ENERGY FILE WAS UPDATED (molecule.en.tmp) ****

----------------
TOTAL SCF ENERGY
----------------

Total Energy       :        -39.43351033621489 Eh           -1073.04037 eV

Components:
Nuclear Repulsion  :          9.55447233701634 Eh             259.99041 eV
Electronic Energy  :        -48.98797840332207 Eh           -1333.03066 eV
One Electron Energy:        -67.97634163626712 Eh           -1849.73029 eV
Two Electron Energy:         18.98836323294505 Eh             516.69963 eV

Virial components:
Potential Energy   :        -78.68032119385006 Eh           -2141.00039 eV
Kinetic Energy     :         39.24681085763518 Eh            1067.96002 eV
Virial Ratio       :          2.00475706113439

DFT components:
N(Alpha)           :        4.000000046058 electrons
N(Beta)            :        4.000000046058 electrons
N(Total)           :        8.000000092116 electrons
E(X)               :       -4.405514537534 Eh       
E(C)               :       -0.229071882218 Eh       
E(XC)              :       -4.634586419751 Eh       

---------------
SCF CONVERGENCE
---------------

  Last Energy change         ...    4.0608e-10  Tolerance :   1.0000e-08
  Last MAX-Density change    ...    1.1537e-06  Tolerance :   1.0000e-07
  Last RMS-Density change    ...    5.2852e-08  Tolerance :   5.0000e-09
  Last DIIS Error            ...    3.0567e-03  Tolerance :   5.0000e-07
  Last Orbital Gradient      ...    3.8136e-07  Tolerance :   1.0000e-05
  Last Orbital Rotation      ...    5.0358e-07  Tolerance :   1.0000e-05


Total SCF time: 0 days 0 hours 0 min 1 sec 
Finished LeanSCF after   1.5 sec

Maximum memory used throughout the entire LEANSCF-calculation: 6.4 MB

------------------------------------------------------------------------------
                         ORCA PROPERTY INTEGRAL CALCULATIONS
------------------------------------------------------------------------------

GBWName                                   ... molecule.gbw
Number of atoms                           ...      4
Number of basis functions                 ...     49
Max core memory                           ...   1024 MB

Dipole integrals                          ... YES
Quadrupole integrals                      ...  NO
Linear momentum integrals                 ...  NO
Angular momentum integrals                ...  NO
Higher moments length integrals           ...  NO
Higher moments velocity integrals         ...  NO
Kinetic energy integrals                  ...  NO
GIAO right hand sides                     ...  NO
GIAO dipole derivative integrals          ...  NO
SOC integrals                             ...  NO
EPR diamagnetic integrals (GIAO)          ...  NO
EPR gauge integrals                       ...  NO
Field gradient integrals                  ...  NO (   0 nuclei)
Spin-dipole/Fermi contact integrals       ...  NO (   0 nuclei)
Contact density integrals                 ...  NO (   0 nuclei)
Nucleus-orbit integrals                   ...  NO (   0 nuclei)
Geometric perturbations                   ...  NO (   4 nuclei)

Choice of electric origin   ... Center of mass
Position of electric origin ... (  1.8960,  0.0570,  0.3635) 
Choice of magnetic origin   ... GIAO
Position of magnetic origin ... (  0.0000,  0.0000,  0.0000) 

Calculating integrals                     ... Electric Dipole (Length)     done (  0.0 sec)

Property integrals calculated in   0.0 sec

Maximum memory used throughout the entire PROPINT-calculation: 7.3 MB


-------------------------------------------------------------------------------
                          DFT DISPERSION CORRECTION                            
                                                                               
                                DFTD4 V3.4.0                                   
-------------------------------------------------------------------------------
-------------------------   ----------------
Dispersion correction           -0.000242286
-------------------------   ----------------


-------------------------   --------------------
FINAL SINGLE POINT ENERGY       -39.433752622682
-------------------------   --------------------

------------------------------------------------------------------------------
                         ORCA SCF GRADIENT CALCULATION
------------------------------------------------------------------------------

Nuc. rep. gradient        (SHARK) ... done (  0.0 sec)
HCore & Overlap gradient  (SHARK) ... done (  0.0 sec)
Split-RIJ-J gradient      (SHARK) ... done (  0.1 sec)
COSX-gradient                     ... done (  0.6 sec)
XC gradient                       ... done (  0.1 sec)
Dispersion correction             ... done (  0.0 sec)

-------------------
DISPERSION GRADIENT
-------------------

   1   C   :    0.000000002    0.000000002    0.000000005
   2   H   :   -0.000000079    0.000000008    0.000000025
   3   H   :    0.000000039   -0.000000074    0.000000008
   4   H   :    0.000000039    0.000000064   -0.000000037

Difference to translation invariance:
           :    0.0000000000   -0.0000000000    0.0000000000

Difference to rotation invariance:
           :    0.0000000000   -0.0000000000   -0.0000000000

Norm of the Dispersion gradient    ...    0.0000001451
RMS gradient                       ...    0.0000000419
MAX gradient                       ...    0.0000000795

------------------
CARTESIAN GRADIENT
------------------

   1   C   :   -0.000025273   -0.000025260   -0.000063239
   2   H   :   -0.000151428    0.000027591    0.000073236
   3   H   :    0.000089046   -0.000139023    0.000041219
   4   H   :    0.000087655    0.000136692   -0.000051215

Difference to translation invariance:
           :   -0.0000000000   -0.0000000000    0.0000000000

Difference to rotation invariance:
           :    0.0000060141    0.0000037854    0.0000023370

Norm of the Cartesian gradient     ...    0.0003037728
RMS gradient                       ...    0.0000876916
MAX gradient                       ...    0.0001514282

-------
TIMINGS
-------

Total SCF gradient time     ....        0.831 sec

Densities                   ....       0.000 sec  (  0.0%)
One electron gradient       ....       0.005 sec  (  0.6%)
RI-J Coulomb gradient       ....       0.066 sec  (  7.9%)
COSX gradient               ....       0.627 sec  ( 75.5%)
XC gradient                 ....       0.106 sec  ( 12.8%)

Maximum memory used throughout the entire SCFGRAD-calculation: 25.7 MB
------------------------------------------------------------------------------
                         ORCA GEOMETRY RELAXATION STEP
------------------------------------------------------------------------------

Reading the OPT-File                    .... done
Getting information on internals        .... done
Copying old internal coords+grads       .... done
Making the new internal coordinates     .... (2022 redundants) done
Validating the new internal coordinates .... (2022 redundants) done
Calculating the B-matrix                .... done
Calculating the G,G- and P matrices     .... done
Transforming gradient to internals      .... done
Projecting the internal gradient        .... done
Number of atoms                         ....   4
Number of internal coordinates          ....   7
Current Energy                          ....   -39.433752623 Eh
Current gradient norm                   ....     0.000303773 Eh/bohr
Maximum allowed component of the step   ....  0.300
Current trust radius                    ....  0.300
Updating the Hessian (BFGS)             .... done
Forming the augmented Hessian           .... done
Diagonalizing the augmented Hessian     .... done
Last element of RFO vector              ....  0.999997132
Lowest eigenvalues of augmented Hessian:
 -0.000000351  0.022725207  0.293355144  0.293356297  0.361841700
Length of the computed step             ....  0.002395101
The final length of the internal step   ....  0.002395101
Converting the step to Cartesian space:
 Initial RMS(Int)=    0.0009052630
Transforming coordinates:
 Iter   0:  RMS(Cart)=    0.0004535865 RMS(Int)=    0.0009052080
done
Storing new coordinates                 .... done
The predicted energy change is          ....    -0.000000175
Previously predicted energy change      ....    -0.000211468
Actually observed energy change         ....    -0.000214299
Ratio of predicted to observed change   ....     1.013390292
New trust radius                        ....     0.450000000

                                .--------------------.
          ----------------------|Geometry convergence|-------------------------
          Item                value                   Tolerance       Converged
          ---------------------------------------------------------------------
          Energy change      -0.0002142994            0.0000050000      NO
          RMS gradient        0.0001119573            0.0001000000      NO
          MAX gradient        0.0001688244            0.0003000000      YES
          RMS step            0.0009052630            0.0020000000      YES
          MAX step            0.0022517297            0.0040000000      YES
          ........................................................
          Max(Bonds)      0.0002      Max(Angles)    0.00
          Max(Dihed)        0.00      Max(Improp)    0.13
          ---------------------------------------------------------------------

The optimization has not yet converged - more geometry cycles are needed


    ---------------------------------------------------------------------------
                         Redundant Internal Coordinates
                            (Angstroem and degrees)

        Definition                    Value    dE/dq     Step     New-Value
    ----------------------------------------------------------------------------
     1. B(H   1,C   0)                1.0929 -0.000169  0.0002    1.0931   
     2. B(H   2,C   0)                1.0929 -0.000168  0.0002    1.0931   
     3. B(H   3,C   0)                1.0929 -0.000169  0.0002    1.0931   
     4. A(H   1,C   0,H   3)          120.00  0.000002   -0.00    120.00   
     5. A(H   2,C   0,H   3)          120.00  0.000001   -0.00    120.00   
     6. A(H   1,C   0,H   2)          120.00 -0.000003    0.00    120.00   
     7. I(H   1,H   3,H   2,C   0)     -0.03 -0.000050    0.13      0.10   
    ----------------------------------------------------------------------------

Geometry step timings:
Preparation and reading OPT file:      0.001 s ( 5.348 %)
Internal coordinates            :      0.000 s ( 0.206 %)
B/P matrices and projection     :      0.000 s ( 0.771 %)
Hessian update/contruction      :      0.007 s (70.599 %)
Making the step                 :      0.000 s ( 0.802 %)
Converting the step to Cartesian:      0.000 s ( 0.339 %)
Storing new data                :      0.001 s ( 6.222 %)
Checking convergence            :      0.000 s ( 0.195 %)
Final printing                  :      0.002 s (15.467 %)
Total time                      :      0.010 s

Time for energy+gradient        :      3.041 s
Time for complete geometry iter :      3.287 s

         *************************************************************
         *                GEOMETRY OPTIMIZATION CYCLE   3            *
         *************************************************************
---------------------------------
CARTESIAN COORDINATES (ANGSTROEM)
---------------------------------
  C      1.003526    0.030345    0.192846
  H      2.033919   -0.083031   -0.154036
  H      0.488038    0.986593    0.071334
  H      0.488007   -0.813046    0.659575

----------------------------
CARTESIAN COORDINATES (A.U.)
----------------------------
  NO LB      ZA    FRAG     MASS         X           Y           Z
   0 C     6.0000    1    12.011    1.896390    0.057343    0.364427
   1 H     1.0000    1     1.008    3.843550   -0.156907   -0.291085
   2 H     1.0000    1     1.008    0.922258    1.864390    0.134802
   3 H     1.0000    1     1.008    0.922199   -1.536435    1.246416

----------------------------------------------
CARTESIAN COORDINATES OF FRAGMENTS (ANGSTROEM)
----------------------------------------------

 FRAGMENT 1 
  C     1.003526    0.030345    0.192846
  H     2.033919   -0.083031   -0.154036
  H     0.488038    0.986593    0.071334
  H     0.488007   -0.813046    0.659575

--------------------------------
INTERNAL COORDINATES (ANGSTROEM)
--------------------------------
 C      0   0   0     0.000000000000     0.00000000     0.00000000
 H      1   0   0     1.093110664056     0.00000000     0.00000000
 H      1   2   0     1.093116468455   119.99846798     0.00000000
 H      1   2   3     1.093116862548   120.00099267   179.88805365

---------------------------
INTERNAL COORDINATES (A.U.)
---------------------------
 C      0   0   0     0.000000000000     0.00000000     0.00000000
 H      1   0   0     2.065679789135     0.00000000     0.00000000
 H      1   2   0     2.065690757858   119.99846798     0.00000000
 H      1   2   3     2.065691502586   120.00099267   179.88805365

------------------------------------------------------------------------------
                   ___                                                        
                  /   \      - P O W E R E D   B Y -                         
                 /     \                                                     
                 |  |  |   _    _      __       _____    __    __             
                 |  |  |  | |  | |    /  \     |  _  \  |  |  /  |          
                  \  \/   | |  | |   /    \    | | | |  |  | /  /          
                 / \  \   | |__| |  /  /\  \   | |_| |  |  |/  /          
                |  |  |   |  __  | /  /__\  \  |    /   |      \           
                |  |  |   | |  | | |   __   |  |    \   |  |\   \          
                \     /   | |  | | |  |  |  |  | |\  \  |  | \   \       
                 \___/    |_|  |_| |__|  |__|  |_| \__\ |__|  \__/        
                                                                              
                      - O R C A' S   B I G   F R I E N D -                    
                                      &                                       
                       - I N T E G R A L  F E E D E R -                       
                                                                              
 v1 FN, 2020, v2 2021, v3 2022-2024                                           
------------------------------------------------------------------------------


----------------------
SHARK INTEGRAL PACKAGE
----------------------

Number of atoms                             ...      4
Number of basis functions                   ...     49
Number of shells                            ...     23
Maximum angular momentum                    ...      3
Integral batch strategy                     ... SHARK/LIBINT Hybrid
RI-J (if used) integral strategy            ... SPLIT-RIJ (Revised 2003 algorithm where possible)
Printlevel                                  ...      1
Contraction scheme used                     ... SEGMENTED contraction
Prescreening option                         ... SCHWARTZ
   Thresh                                   ... 2.500e-11
   Tcut                                     ... 2.500e-12
   Tpresel                                  ... 2.500e-12 
Coulomb Range Separation                    ... NOT USED
Exchange Range Separation                   ... NOT USED
Multipole approximations                    ... NOT USED
Finite Nucleus Model                        ... NOT USED
CABS basis                                  ... NOT available
Auxiliary Coulomb fitting basis             ... AVAILABLE
   # of basis functions in Aux-J            ...     82
   # of shells in Aux-J                     ...     30
   Maximum angular momentum in Aux-J        ...      4
Auxiliary J/K fitting basis                 ... NOT available
Auxiliary Correlation fitting basis         ... NOT available
Auxiliary 'external' fitting basis          ... NOT available

Checking pre-screening integrals            ... done (  0.0 sec) Dimension = 23
Check shell pair data                       ... done (  0.0 sec)
Shell pair information
Shell pair cut-off parameter TPreSel        ...   2.5e-12
[...]
               *           SCF CONVERGED AFTER   3 CYCLES          *
               *****************************************************

Recomputing exchange energy using gridx3       ... done (    0.142 sec)
Old exchange energy                            :     -1.481519755 Eh
New exchange energy                            :     -1.481524034 Eh
Exchange energy change after final integration :     -0.000004278 Eh
Total energy after final integration           :    -39.433510438 Eh
             **** ENERGY FILE WAS UPDATED (molecule.en.tmp) ****

----------------
TOTAL SCF ENERGY
----------------

Total Energy       :        -39.43351043833212 Eh           -1073.04037 eV

Components:
Nuclear Repulsion  :          9.55123883514648 Eh             259.90242 eV
Electronic Energy  :        -48.98474499503236 Eh           -1332.94268 eV
One Electron Energy:        -67.97086539144847 Eh           -1849.58128 eV
Two Electron Energy:         18.98612039641612 Eh             516.63860 eV

Virial components:
Potential Energy   :        -78.67880600309601 Eh           -2140.95916 eV
Kinetic Energy     :         39.24529556476389 Eh            1067.91878 eV
Virial Ratio       :          2.00479585822606

DFT components:
N(Alpha)           :        4.000000045938 electrons
N(Beta)            :        4.000000045938 electrons
N(Total)           :        8.000000091876 electrons
E(X)               :       -4.405237166982 Eh       
E(C)               :       -0.229061128922 Eh       
E(XC)              :       -4.634298295904 Eh       

---------------
SCF CONVERGENCE
---------------

  Last Energy change         ...    3.1449e-09  Tolerance :   1.0000e-08
  Last MAX-Density change    ...    5.6060e-06  Tolerance :   1.0000e-07
  Last RMS-Density change    ...    4.9690e-07  Tolerance :   5.0000e-09
  Last DIIS Error            ...    2.3963e-04  Tolerance :   5.0000e-07
  Last Orbital Gradient      ...    5.8997e-06  Tolerance :   1.0000e-05
  Last Orbital Rotation      ...    1.1233e-05  Tolerance :   1.0000e-05


----------------
ORBITAL ENERGIES
----------------

  NO   OCC          E(Eh)            E(eV) 
   0   2.0000     -10.684876      -290.7503 
   1   2.0000      -1.063869       -28.9493 
   2   2.0000      -0.795575       -21.6487 
   3   2.0000      -0.795571       -21.6486 
   4   0.0000      -0.474601       -12.9146 
   5   0.0000      -0.181019        -4.9258 
   6   0.0000      -0.125430        -3.4131 
   7   0.0000      -0.125425        -3.4130 
   8   0.0000      -0.037395        -1.0176 
   9   0.0000      -0.037386        -1.0173 
  10   0.0000      -0.008351        -0.2272 
  11   0.0000      -0.005962        -0.1622 
  12   0.0000       0.181131         4.9288 
  13   0.0000       0.205239         5.5848 
  14   0.0000       0.205241         5.5849 
*Only the first 10 virtual orbitals were printed.

                    ********************************
                    * MULLIKEN POPULATION ANALYSIS *
                    ********************************

-------------------------
MULLIKEN FRAGMENT CHARGES
-------------------------
 Fragment   0 :   1.000000
Sum of fragment charges:    1.0000000

---------------------------------
MULLIKEN FRAGMENT OVERLAP CHARGES
---------------------------------
                  0    
      0      10.152949

-----------------------
MULLIKEN ATOMIC CHARGES
-----------------------
   0 C :    0.156872
   1 H :    0.281019
   2 H :    0.281082
   3 H :    0.281026
Sum of atomic charges:    1.0000000

--------------------------------
MULLIKEN REDUCED ORBITAL CHARGES
--------------------------------
  0 C s       :     3.448690  s :     3.448690
      pz      :     0.233750  p :     2.374193
      px      :     1.055194
      py      :     1.085250
      dz2     :     0.002368  d :     0.018514
      dxz     :     0.002401
      dyz     :     0.002174
      dx2y2   :     0.005691
      dxy     :     0.005879
      f0      :     0.000095  f :     0.001730
      f+1     :     0.000038
      f-1     :     0.000095
      f+2     :     0.000192
      f-2     :     0.000243
      f+3     :     0.001035
      f-3     :     0.000032

  1 H s       :     0.696547  s :     0.696547
      pz      :     0.002235  p :     0.022434
      px      :     0.016556
      py      :     0.003643

  2 H s       :     0.696488  s :     0.696488
      pz      :     0.000931  p :     0.022430
      px      :     0.006677
      py      :     0.014821

  3 H s       :     0.696540  s :     0.696540
      pz      :     0.003460  p :     0.022434
      px      :     0.006679
      py      :     0.012295



                     *******************************
                     * LOEWDIN POPULATION ANALYSIS *
                     *******************************

------------------------
LOEWDIN FRAGMENT CHARGES
------------------------
 Fragment   0 :   1.000000

----------------------------
LOEWDIN FRAGMENT BOND ORDERS
----------------------------
                  0    
      0      13.980895

----------------------
LOEWDIN ATOMIC CHARGES
----------------------
   0 C :    0.494101
   1 H :    0.168628
   2 H :    0.168638
   3 H :    0.168633

-------------------------------
LOEWDIN REDUCED ORBITAL CHARGES
-------------------------------
  0 C s       :     3.075080  s :     3.075080
      pz      :     0.232898  p :     2.365546
      px      :     1.051362
      py      :     1.081286
      dz2     :     0.002648  d :     0.059672
      dxz     :     0.005882
      dyz     :     0.005804
      dx2y2   :     0.022492
      dxy     :     0.022845
      f0      :     0.001193  f :     0.005601
      f+1     :     0.000494
      f-1     :     0.000678
      f+2     :     0.000890
      f-2     :     0.000733
      f+3     :     0.001516
      f-3     :     0.000095

  1 H s       :     0.759792  s :     0.759792
      pz      :     0.007129  p :     0.071580
      px      :     0.052232
      py      :     0.012220

  2 H s       :     0.759783  s :     0.759783
      pz      :     0.003086  p :     0.071579
      px      :     0.021603
      py      :     0.046890

  3 H s       :     0.759789  s :     0.759789
      pz      :     0.010927  p :     0.071579
      px      :     0.021605
      py      :     0.039047



                      *****************************
                      * MAYER POPULATION ANALYSIS *
                      *****************************

  NA   - Mulliken gross atomic population
  ZA   - Total nuclear charge
  QA   - Mulliken gross atomic charge
  VA   - Mayer's total valence
  BVA  - Mayer's bonded valence
  FA   - Mayer's free valence

  ATOM       NA         ZA         QA         VA         BVA        FA
  0 C      5.8431     6.0000     0.1569     2.7169     2.7169     0.0000
  1 H      0.7190     1.0000     0.2810     0.9177     0.9177     0.0000
  2 H      0.7189     1.0000     0.2811     0.9176     0.9176    -0.0000
  3 H      0.7190     1.0000     0.2810     0.9177     0.9177    -0.0000

  Mayer bond orders larger than 0.100000
B(  0-C ,  1-H ) :   0.9056 B(  0-C ,  2-H ) :   0.9056 B(  0-C ,  3-H ) :   0.9056 


-------
TIMINGS
-------

Total SCF time: 0 days 0 hours 0 min 1 sec 

Total time                  ....       1.073 sec
Sum of individual times     ....       1.030 sec  ( 96.0%)

SCF preparation             ....       0.071 sec  (  6.6%)
Fock matrix formation       ....       0.729 sec  ( 67.9%)
  Startup                   ....       0.020 sec  (  2.7% of F)
  Split-RI-J                ....       0.037 sec  (  5.1% of F)
  Chain of spheres X        ....       0.494 sec  ( 67.7% of F)
  XC integration            ....       0.126 sec  ( 17.3% of F)
    XC Preparation          ....       0.000 sec  (  0.0% of XC)
    Basis function eval.    ....       0.041 sec  ( 32.7% of XC)
    Density eval.           ....       0.014 sec  ( 10.8% of XC)
    XC-Functional eval.     ....       0.016 sec  ( 12.5% of XC)
    XC-Potential eval.      ....       0.021 sec  ( 16.3% of XC)
Diagonalization             ....       0.000 sec  (  0.0%)
Density matrix formation    ....       0.085 sec  (  7.9%)
Total Energy calculation    ....       0.012 sec  (  1.1%)
Population analysis         ....       0.022 sec  (  2.0%)
Orbital Transformation      ....       0.020 sec  (  1.8%)
Orbital Orthonormalization  ....       0.000 sec  (  0.0%)
DIIS solution               ....       0.011 sec  (  1.0%)
SOSCF solution              ....       0.081 sec  (  7.6%)
Finished LeanSCF after   1.1 sec

Maximum memory used throughout the entire LEANSCF-calculation: 6.6 MB

------------------------------------------------------------------------------
                         ORCA PROPERTY INTEGRAL CALCULATIONS
------------------------------------------------------------------------------

GBWName                                   ... molecule.gbw
Number of atoms                           ...      4
Number of basis functions                 ...     49
Max core memory                           ...   1024 MB

Dipole integrals                          ... YES
Quadrupole integrals                      ...  NO
Linear momentum integrals                 ...  NO
Angular momentum integrals                ...  NO
Higher moments length integrals           ...  NO
Higher moments velocity integrals         ...  NO
Kinetic energy integrals                  ...  NO
GIAO right hand sides                     ...  NO
GIAO dipole derivative integrals          ...  NO
SOC integrals                             ...  NO
EPR diamagnetic integrals (GIAO)          ...  NO
EPR gauge integrals                       ...  NO
Field gradient integrals                  ...  NO (   0 nuclei)
Spin-dipole/Fermi contact integrals       ...  NO (   0 nuclei)
Contact density integrals                 ...  NO (   0 nuclei)
Nucleus-orbit integrals                   ...  NO (   0 nuclei)
Geometric perturbations                   ... YES (   4 nuclei)

Choice of electric origin   ... Center of mass
Position of electric origin ... (  1.8960,  0.0570,  0.3635) 
Choice of magnetic origin   ... GIAO
Position of magnetic origin ... (  0.0000,  0.0000,  0.0000) 

Calculating integrals                     ... Electric Dipole (Length)     done (  0.0 sec)
Calculating integrals                     ... Geometrical perturbation right hand sides

-----------------------
GEOMETRIC PERTURBATIONS (4 nuclei)
-----------------------

MaxCore                            ...   1024 MB
Number of batches                  ...      1

BATCH   0: Atoms    0 -    3 ( 12 perturbations)
   => H(core) and overlap derivative integrals     ... done (     0.0 sec)
   => Making and storing internal U-coefficients   ... done (     0.0 sec)
   => RI-J derivative integrals                    ... done (     0.1 sec)
   => RI-J response operators                      ... done (     0.0 sec)
   => Chain of spheres derivative integrals        ... done (     0.3 sec)
   => Chain of spheres response operator           ... done (     0.1 sec)
   => XC derivative integrals                      ... done (     0.7 sec)
   => XC response operators                        ... done (     0.1 sec)
   => Completing and storing right hand sides      ... done (     0.0 sec)
   => Total time for right hand sides =   1.4 sec

  geometrical perturbations done (  1.4 sec)

Property integrals calculated in   1.4 sec

Maximum memory used throughout the entire PROPINT-calculation: 10.0 MB


-------------------------------------------------------------------------------
                          DFT DISPERSION CORRECTION                            
                                                                               
                                DFTD4 V3.4.0                                   
-------------------------------------------------------------------------------
The PBE0 functional is recognized
Active option DFTDOPT                   ...         5   

-------------------------   ----------------
Dispersion correction           -0.000242287
-------------------------   ----------------


-------------------------   --------------------
FINAL SINGLE POINT ENERGY       -39.433752724979
-------------------------   --------------------

                                *** OPTIMIZATION RUN DONE ***

		     ------------------------------
			                   _   
			                  | |  
			  __ _  ___   __ _| |_ 
			 / _` |/ _ \ / _` | __|
			| (_| | (_) | (_| | |_ 
			 \__, |\___/ \__,_|\__|
			 __/ |                
			|___/                 

		      A Global Optimizer Algorithm
		     ------------------------------

Global parameters
-----------------
  GOAT version                               ... default
  Minimum global steps                       ... 3
  Number of base workers                     ... 4
  Split workers by                           ... 2
  Final number of workers                    ... 8
  Number of available CPUs                   ... 1
  Parameter list (worker : temperature)      ...  0 : 2903.97,  1 : 1451.98, 
                                                  2 :  725.99,  3 :  363.00, 
                                                  4 : 2903.97,  5 : 1451.98, 
                                                  6 :  725.99,  7 :  363.00 
  GradComp (mean : sigma)                    ... 1.00 : 0.50
  Number of fragments                        ... 1
  Number of atoms                            ... 4
  Flexibility parameter                      ... 0.50
  Optimizations per global step              ... 120
  Optimizations per worker                   ... 15
  *Reached the min. opt. per worker: max(flex * NAtoms, 15) = 15

Filtering criteria
------------------
  RMSD                                       ... 0.125 Angs (atom. pos.)
  EnDiff                                     ... 0.100 kcal/mol
  RotConst                                   ... 1.00-2.50 %
  Maximum Conf. Energy                       ... 6.000 kcal/mol

Thermodynamics
--------------
  Ensemble temperature                       ... 298.15 K
  Degeneracy of conformers                   ... 1
  *No rotamers will be included in Gconf

------------------------------------------------------------------------------
   Iter  MinTemp     MaxEn       GradComp    NOpt   NProcs    Output
------------------------------------------------------------------------------
   0     2903.97     12.00    1.00 : 0.50      15        1    molecule.goat.0.0.out
   1     1451.98     12.00    1.00 : 0.50      15        1    molecule.goat.0.1.out
   2      725.99     12.00    1.00 : 0.50      15        1    molecule.goat.0.2.out
   3      363.00     12.00    1.00 : 0.50      15        1    molecule.goat.0.3.out
   4     2903.97     12.00    1.00 : 0.50      15        1    molecule.goat.0.4.out
   5     1451.98     12.00    1.00 : 0.50      15        1    molecule.goat.0.5.out
   6      725.99     12.00    1.00 : 0.50      15        1    molecule.goat.0.6.out
   7      363.00     12.00    1.00 : 0.50      15        1    molecule.goat.0.7.out

			     GOAT Global Iter 1
		Iter    Min En       Sconf       Gconf   
		        Hartree      cal/(molK)  kcal/mol
		=========================================

		   1    -39.433753   0.000       0.000

   0     2903.97     12.00    1.00 : 0.50      15        1    molecule.goat.1.0.out
   1     1451.98     12.00    1.00 : 0.50      15        1    molecule.goat.1.1.out
   2      725.99     12.00    1.00 : 0.50      15        1    molecule.goat.1.2.out
   3      363.00     12.00    1.00 : 0.50      15        1    molecule.goat.1.3.out
   4     2903.97     12.00    1.00 : 0.50      15        1    molecule.goat.1.4.out
   5     1451.98     12.00    1.00 : 0.50      15        1    molecule.goat.1.5.out
   6      725.99     12.00    1.00 : 0.50      15        1    molecule.goat.1.6.out
   7      363.00     12.00    1.00 : 0.50      15        1    molecule.goat.1.7.out

			     GOAT Global Iter 2
		Iter    Min En       Sconf       Gconf   
		        Hartree      cal/(molK)  kcal/mol
		=========================================

		   1    -39.433753   0.000       0.000
		   2    -39.433753   0.000       0.000

   0     2903.97     12.00    1.00 : 0.50      15        1    molecule.goat.2.0.out
   1     1451.98     12.00    1.00 : 0.50      15        1    molecule.goat.2.1.out
   2      725.99     12.00    1.00 : 0.50      15        1    molecule.goat.2.2.out
   3      363.00     12.00    1.00 : 0.50      15        1    molecule.goat.2.3.out
   4     2903.97     12.00    1.00 : 0.50      15        1    molecule.goat.2.4.out
   5     1451.98     12.00    1.00 : 0.50      15        1    molecule.goat.2.5.out
   6      725.99     12.00    1.00 : 0.50      15        1    molecule.goat.2.6.out
   7      363.00     12.00    1.00 : 0.50      15        1    molecule.goat.2.7.out

			     GOAT Global Iter 3
		Iter    Min En       Sconf       Gconf   
		        Hartree      cal/(molK)  kcal/mol
		=========================================

		   1    -39.433753   0.000       0.000
		   2    -39.433753   0.000       0.000
		   3    -39.433753   0.000       0.000

		Global minimum found!
		Writing structure to molecule.globalminimum.xyz

		# Final ensemble info #
		Conformer     Energy     Degen.   % total   % cumul.  
		              (kcal/mol)
		------------------------------------------------------
		        0     0.000	     1     100.00     100.00

		Conformers below 3 kcal/mol: 1
		Lowest energy conformer    : -39.433753 Eh
		Sconf at 298.15 K          :  0.00 cal/(molK)
		Gconf at 298.15 K          : 0.00 kcal/mol

		Writing final ensemble to molecule.finalensemble.xyz
------------------------------------------------------------------------------
                            ORCA SCF RESPONSE CALCULATION
------------------------------------------------------------------------------

GBWName                                 ... molecule.gbw
Number of atoms                         ...      4
Number of basis functions               ...     49
Max core memory                         ...   1024 MB

Electric field perturbation             ...  NO
Quadrupolar field perturbation          ...  NO
Magnetic field perturbation (no GIAO)   ...  NO
Magnetic field perturbation (with GIAO) ...  NO
Linear momentum (velocity) perturbation ...  NO
Spin-orbit coupling perturbation        ...  NO
Choice of electric origin               ... Center of mass
Position of electric origin             ...     1.896031     0.057033     0.363458
Choice of magnetic origin               ... GIAO
Position of magnetic origin             ...     0.000000     0.000000     0.000000
Nuclear geometric perturbations         ... YES (  12 perturbations)
Nucleus-orbit perturbations             ...  NO (   0 perturbations)
Spin-dipole/Fermi contact perturbations ...  NO (   0 perturbations)

Total number of real perturbations      ...     12
Total number of imaginary perturbations ...      0
Total number of triplet perturbations   ...      0
Total number of SOC perturbations       ...      0


                                **********************
                                * REAL PERTURBATIONS *
                                **********************



-------------------
SHARK CP-SCF DRIVER
-------------------

Dimension of the orbital basis          ...      0
Dimension of the CPSCF-problem          ...    180
Number of operators                     ...      1
Max. number of iterations               ...    128
Convergence Tolerance                   ... 1.0e-04
Number of perturbations                 ...     12
Perturbation type                       ... REAL

----------------------------
POPLE LINEAR EQUATION SOLVER
----------------------------


ORCA finished by error termination in SCF RESPONSE
Calling Command: /cluster/software/commercial/orca/6.0.0/x86_64/bin/orca_scfresp molecule.respinp.tmp molecule 1 
[file orca_tools/qcmsg.cpp, line 394]: 
  .... aborting the run

