
                                 *****************
                                 * O   R   C   A *
                                 *****************

                                            #,                                       
                                            ###                                      
                                            ####                                     
                                            #####                                    
                                            ######                                   
                                           ########,                                 
                                     ,,################,,,,,                         
                               ,,#################################,,                 
                          ,,##########################################,,             
                       ,#########################################, ''#####,          
                    ,#############################################,,   '####,        
                  ,##################################################,,,,####,       
                ,###########''''           ''''###############################       
              ,#####''   ,,,,##########,,,,          '''####'''          '####       
            ,##' ,,,,###########################,,,                        '##       
           ' ,,###''''                  '''############,,,                           
         ,,##''                                '''############,,,,        ,,,,,,###''
      ,#''                                            '''#######################'''  
     '                                                          ''''####''''         
             ,#######,   #######,   ,#######,      ##                                
            ,#'     '#,  ##    ##  ,#'     '#,    #''#        ,####,   ,####,        
            ##       ##  ##   ,#'  ##            #'  '#       #'       #'  '#        
            ##       ##  #######   ##           ,######,      #####,   #    #        
            '#,     ,#'  ##    ##  '#,     ,#' ,#      #,     #,   #   #,  ,#        
             '#######'   ##     ##  '#######'  #'      '#     '####' # '####'        



                #########################################################
                #                        -***-                          #
                #          Department of theory and spectroscopy        #
                #                                                       #
                #                      Frank Neese                      #
                #                                                       #
                #     Directorship, Architecture, Infrastructure        #
                #                    SHARK, DRIVERS                     #
                #        Core code/Algorithms in most modules           #
                #                                                       #
                #        Max Planck Institute fuer Kohlenforschung      #
                #                Kaiser Wilhelm Platz 1                 #
                #                 D-45470 Muelheim/Ruhr                 #
                #                      Germany                          #
                #                                                       #
                #                  All rights reserved                  #
                #                        -***-                          #
                #########################################################


                         Program Version 6.0.0  -   RELEASE  -


 With contributions from (in alphabetic order):
   Daniel Aravena         : Magnetic Suceptibility
   Michael Atanasov       : Ab Initio Ligand Field Theory (pilot matlab implementation)
   Alexander A. Auer      : GIAO ZORA, VPT2 properties, NMR spectrum
   Ute Becker             : All parallelization in ORCA, NUMFREQ, NUMCALC
   Giovanni Bistoni       : ED, misc. LED, open-shell LED, HFLD
   Martin Brehm           : Molecular dynamics
   Dmytro Bykov           : pre 5.0 version of the SCF Hessian
   Marcos Casanova-Páez   : Triplet and SCS-CIS(D). UHF-(DLPNO)-IP/EA/STEOM-CCSD. UHF-CVS-IP/STEOM-CCSD
   Vijay G. Chilkuri      : MRCI spin determinant printing, contributions to CSF-ICE
   Pauline Colinet        : FMM embedding
   Dipayan Datta          : RHF DLPNO-CCSD density
   Achintya Kumar Dutta   : EOM-CC, STEOM-CC
   Nicolas Foglia         : Exact transition moments, OPA infrastructure, MCD improvements
   Dmitry Ganyushin       : Spin-Orbit,Spin-Spin,Magnetic field MRCI
   Miquel Garcia          : C-PCM and meta-GGA Hessian, CCSD/C-PCM, Gaussian charge scheme
   Tiago L. C. Gouveia    : GS-ROHF, GS-ROCIS
   Yang Guo               : DLPNO-NEVPT2, F12-NEVPT2, CIM, IAO-localization
   Andreas Hansen         : Spin unrestricted coupled pair/coupled cluster methods
   Ingolf Harden          : AUTO-CI MPn and infrastructure 
   Benjamin Helmich-Paris : MC-RPA, TRAH-(SCF,CASSCF), AVAS, COSX integrals, SCF dyn. polar.
   Lee Huntington         : MR-EOM, pCC
   Robert Izsak           : Overlap fitted RIJCOSX, COSX-SCS-MP3, EOM
   Riya Kayal             : Wick's Theorem for AUTO-CI, AUTO-CI UHF-CCSDT
   Emily Kempfer          : AUTO-CI, RHF CISDT and CCSDT
   Christian Kollmar      : KDIIS, OOCD, Brueckner-CCSD(T), CCSD density, CASPT2, CASPT2-K, improved NEVPT2
   Axel Koslowski         : Symmetry handling
   Simone Kossmann        : Meta GGA functionals, TD-DFT gradient, OOMP2, (MP2 Hessian; deprecated post 5.0)
   Lucas Lang             : DCDCAS
   Marvin Lechner         : AUTO-CI (C++ implementation), FIC-MRCC
   Spencer Leger          : CASSCF response
   Dagmar Lenk            : GEPOL surface, SMD, ORCA-2-JSON
   Dimitrios Liakos       : Extrapolation schemes; Compound Job, initial MDCI parallelization
   Dimitrios Manganas     : Further ROCIS development; embedding schemes. LFT, Crystal Embedding
   Dimitrios Pantazis     : SARC Basis sets
   Anastasios Papadopoulos: AUTO-CI, single reference methods and gradients
   Taras Petrenko         : pre 6.0 DFT Hessian and TD-DFT gradient, (ASA, deprecated), ECA, 1-Electron XAS/XES, NRVS
   Peter Pinski           : DLPNO-MP2, DLPNO-MP2 Gradient
   Christoph Reimann      : Effective Core Potentials
   Marius Retegan         : Local ZFS, SOC
   Christoph Riplinger    : Optimizer, TS searches, QM/MM, DLPNO-CCSD(T), (RO)-DLPNO pert. Triples
   Michael Roemelt        : Original ROCIS implementation
   Masaaki Saitow         : Open-shell DLPNO-CCSD energy and density
   Barbara Sandhoefer     : DKH picture change effects
   Kantharuban Sivalingam : CASSCF convergence/infrastructure, NEVPT2 and variants, FIC-MRCI
   Bernardo de Souza      : ESD, SOC TD-DFT
   Georgi Stoychev        : AutoAux, RI-MP2 NMR, DLPNO-MP2 response, X2C
   Van Anh Tran           : RI-MP2 g-tensors
   Willem Van den Heuvel  : Paramagnetic NMR
   Zikuan Wang            : NOTCH, Electric field optimization 
   Frank Wennmohs         : Technical directorship and infrastructure
   Hang Xu                : AUTO-CI-Response properties 


 We gratefully acknowledge several colleagues who have allowed us to
 interface, adapt or use parts of their codes:
   Stefan Grimme, W. Hujo, H. Kruse, P. Pracht,  : VdW corrections, initial TS optimization,
                  C. Bannwarth, S. Ehlert,         DFT functionals, gCP, sTDA/sTD-DF
                  L. Wittmann, M. Mueller
   Ed Valeev, F. Pavosevic, A. Kumar             : LibInt (2-el integral package), F12 methods
   Garnet Chan, S. Sharma, J. Yang, R. Olivares  : DMRG
   Ulf Ekstrom                                   : XCFun DFT Library
   Mihaly Kallay                                 : mrcc  (arbitrary order and MRCC methods)
   Frank Weinhold                                : gennbo (NPA and NBO analysis)
   Simon Mueller                                 : openCOSMO-RS
   Christopher J. Cramer and Donald G. Truhlar   : smd solvation model
   Lars Goerigk                                  : TD-DFT with DH, B97 family of functionals
   V. Asgeirsson, H. Jonsson                     : NEB implementation
   FAccTs GmbH                                   : IRC, NEB, NEB-TS, DLPNO-Multilevel, CI-OPT
                                                   MM, QMMM, 2- and 3-layer-ONIOM, Crystal-QMMM,
                                                   LR-CPCM, SF, NACMEs, symmetry and pop. for TD-DFT,
                                                   nearIR, NL-DFT gradient (VV10), updates on ESD,
                                                   ML-optimized integration grids, MBIS, APM,
                                                   GOAT, DOCKER, SOLVATOR, interface openCOSMO-RS
   S Lehtola, MJT Oliveira, MAL Marques          : LibXC Library
   Liviu Ungur et al                             : ANISO software


 Your calculation uses the libint2 library for the computation of 2-el integrals
 For citations please refer to: http://libint.valeyev.net

 Your ORCA version has been built with support for libXC version: 6.2.2
 For citations please refer to: https://libxc.gitlab.io

 This ORCA versions uses:
   CBLAS   interface :  Fast vector & matrix operations
   LAPACKE interface :  Fast linear algebra routines
   SCALAPACK package :  Parallel linear algebra routines
   Shared memory     :  Shared parallel matrices
   BLAS/LAPACK       :  OpenBLAS 0.3.27  USE64BITINT DYNAMIC_ARCH NO_AFFINITY Cooperlake SINGLE_THREADED
        Core in use  :  Cooperlake
   Copyright (c) 2011-2014, The OpenBLAS Project


Your calculation utilizes the atom-pairwise dispersion correction
based on EEQ partial charges (D4)


================================================================================

----- Orbital basis set information -----
Your calculation utilizes the basis: def2-SVP
   F. Weigend and R. Ahlrichs, Phys. Chem. Chem. Phys. 7, 3297 (2005).

----- AuxJ basis set information -----
Your calculation utilizes the auxiliary basis: def2/J
   F. Weigend, Phys. Chem. Chem. Phys. 8, 1057 (2006).

================================================================================
                                        WARNINGS
                       Please study these warnings very carefully!
================================================================================


WARNING: Geometry Optimization
  ===> : Switching off AutoStart
         For restart on a previous wavefunction, please use MOREAD

================================================================================
                                       INPUT FILE
================================================================================
NAME = molecule.inp
|  1> # ORCA Input File generated by Ophysia
|  2> ! B3LYP D4 def2-SVP OPT RIJCOSX FREQ def2/J TIGHTOPT
|  3> * xyz 1 1
|  4> C          1.10664        0.12229       -0.06163
|  5> C          2.57553       -0.08270       -0.01930
|  6> H          0.58040        0.09634       -1.00860
|  7> H          0.58003        0.46368        0.82164
|  8> H          2.88007       -0.80998       -0.77753
|  9> H          2.87850       -0.46040        0.96074
| 10> H          3.09456        0.86076       -0.20885
| 11> **                         ****END OF INPUT****
================================================================================

                       *****************************
                       * Geometry Optimization Run *
                       *****************************

Geometry optimization settings:
Update method            Update   .... BFGS
Choice of coordinates    CoordSys .... (2022) Redundant Internals
Initial Hessian          InHess   .... Almloef's Model
Max. no of cycles        MaxIter  .... 50

Convergence Tolerances:
Energy Change            TolE     ....  1.0000e-06 Eh
Max. Gradient            TolMAXG  ....  1.0000e-04 Eh/bohr
RMS Gradient             TolRMSG  ....  3.0000e-05 Eh/bohr
Max. Displacement        TolMAXD  ....  1.0000e-03 bohr
RMS Displacement         TolRMSD  ....  6.0000e-04 bohr
Strict Convergence                .... False

------------------------------------------------------------------------------
                        ORCA OPTIMIZATION COORDINATE SETUP
------------------------------------------------------------------------------

The optimization will be done in redundant internal coordinates (2022)
Making redundant internal coordinates   ...  (2022 redundants) done
Evaluating the initial hessian          ...  (Almloef) done
Evaluating the coordinates              ...  done
Calculating the B-matrix                .... done
Calculating the G-matrix                .... done
Diagonalizing the G-matrix              .... done
The first mode is                       ....    5
The number of degrees of freedom        ....   15

    -----------------------------------------------------------------
                    Redundant Internal Coordinates


    -----------------------------------------------------------------
         Definition                    Initial Value    Approx d2E/dq
    -----------------------------------------------------------------
      1. B(C   1,C   0)                  1.4837         0.442793   
      2. B(H   2,C   0)                  1.0837         0.368564   
      3. B(H   3,C   0)                  1.0835         0.368765   
      4. B(H   4,C   1)                  1.0939         0.354992   
      5. B(H   5,C   1)                  1.0931         0.355987   
      6. B(H   6,C   1)                  1.0934         0.355681   
      7. A(H   2,C   0,H   3)          118.9390         0.292998   
      8. A(C   1,C   0,H   3)          120.0945         0.334869   
      9. A(C   1,C   0,H   2)          120.1570         0.334838   
     10. A(H   4,C   1,H   5)          108.3341         0.289665   
     11. A(C   0,C   1,H   5)          110.3468         0.332914   
     12. A(C   0,C   1,H   6)          110.2306         0.332866   
     13. A(H   5,C   1,H   6)          108.7845         0.289754   
     14. A(H   4,C   1,H   6)          108.7462         0.289626   
     15. A(C   0,C   1,H   4)          110.3465         0.332759   
     16. D(H   4,C   1,C   0,H   3)    155.0453         0.014465   
     17. D(H   5,C   1,C   0,H   2)   -155.0574         0.014465   
     18. D(H   5,C   1,C   0,H   3)     35.3533         0.014465   
     19. D(H   6,C   1,C   0,H   2)     84.7647         0.014465   
     20. D(H   4,C   1,C   0,H   2)    -35.3654         0.014465   
    -----------------------------------------------------------------

Number of atoms                         .... 7
Number of degrees of freedom            .... 20


         *************************************************************
         *                GEOMETRY OPTIMIZATION CYCLE   1            *
         *************************************************************
---------------------------------
CARTESIAN COORDINATES (ANGSTROEM)
---------------------------------
  C      1.106640    0.122290   -0.061630
  C      2.575530   -0.082700   -0.019300
  H      0.580400    0.096340   -1.008600
  H      0.580030    0.463680    0.821640
  H      2.880070   -0.809980   -0.777530
  H      2.878500   -0.460400    0.960740
  H      3.094560    0.860760   -0.208850

----------------------------
CARTESIAN COORDINATES (A.U.)
----------------------------
  NO LB      ZA    FRAG     MASS         X           Y           Z
   0 C     6.0000    0    12.011    2.091247    0.231095   -0.116464
   1 C     6.0000    0    12.011    4.867046   -0.156280   -0.036472
   2 H     1.0000    0     1.008    1.096797    0.182056   -1.905978
   3 H     1.0000    0     1.008    1.096098    0.876228    1.552675
   4 H     1.0000    0     1.008    5.442544   -1.530640   -1.469319
   5 H     1.0000    0     1.008    5.439577   -0.870030    1.815535
   6 H     1.0000    0     1.008    5.847871    1.626601   -0.394669

--------------------------------
INTERNAL COORDINATES (ANGSTROEM)
--------------------------------
 C      0   0   0     0.000000000000     0.00000000     0.00000000
 C      1   0   0     1.483728600890     0.00000000     0.00000000
 H      1   2   0     1.083676206715   120.15704804     0.00000000
 H      1   2   3     1.083527164911   120.09448036   190.41067861
 H      2   1   3     1.093889182184   110.34654528   324.63461156
 H      2   1   3     1.093126942537   110.34683307   204.94264962
 H      2   1   3     1.093360926227   110.23064239    84.76468433

---------------------------
INTERNAL COORDINATES (A.U.)
---------------------------
 C      0   0   0     0.000000000000     0.00000000     0.00000000
 C      1   0   0     2.803840712749     0.00000000     0.00000000
 H      1   2   0     2.047851248538   120.15704804     0.00000000
 H      1   2   3     2.047569600346   120.09448036   190.41067861
 H      2   1   3     2.067150975188   110.34654528   324.63461156
 H      2   1   3     2.065710551005   110.34683307   204.94264962
 H      2   1   3     2.066152716100   110.23064239    84.76468433

---------------------
BASIS SET INFORMATION
---------------------
There are 2 groups of distinct atoms

 Group   1 Type C   : 7s4p1d contracted to 3s2p1d pattern {511/31/1}
 Group   2 Type H   : 4s1p contracted to 2s1p pattern {31/1}

Atom   0C    basis set group =>   1
Atom   1C    basis set group =>   1
Atom   2H    basis set group =>   2
Atom   3H    basis set group =>   2
Atom   4H    basis set group =>   2
Atom   5H    basis set group =>   2
Atom   6H    basis set group =>   2
---------------------------------
AUXILIARY/J BASIS SET INFORMATION
---------------------------------
There are 2 groups of distinct atoms

 Group   1 Type C   : 12s5p4d2f1g contracted to 6s4p3d1f1g pattern {711111/2111/211/2/1}
 Group   2 Type H   : 5s2p1d contracted to 3s1p1d pattern {311/2/1}

Atom   0C    basis set group =>   1
Atom   1C    basis set group =>   1
Atom   2H    basis set group =>   2
Atom   3H    basis set group =>   2
Atom   4H    basis set group =>   2
Atom   5H    basis set group =>   2
Atom   6H    basis set group =>   2
------------------------------------------------------------------------------
                             ORCA STARTUP CALCULATIONS
                           -- RI-GTO INTEGRALS CHOSEN --
------------------------------------------------------------------------------
------------------------------------------------------------------------------
                   ___                                                        
                  /   \      - P O W E R E D   B Y -                         
                 /     \                                                     
                 |  |  |   _    _      __       _____    __    __             
                 |  |  |  | |  | |    /  \     |  _  \  |  |  /  |          
                  \  \/   | |  | |   /    \    | | | |  |  | /  /          
                 / \  \   | |__| |  /  /\  \   | |_| |  |  |/  /          
                |  |  |   |  __  | /  /__\  \  |    /   |      \           
                |  |  |   | |  | | |   __   |  |    \   |  |\   \          
                \     /   | |  | | |  |  |  |  | |\  \  |  | \   \       
                 \___/    |_|  |_| |__|  |__|  |_| \__\ |__|  \__/        
                                                                              
                      - O R C A' S   B I G   F R I E N D -                    
                                      &                                       
                       - I N T E G R A L  F E E D E R -                       
                                                                              
 v1 FN, 2020, v2 2021, v3 2022-2024                                           
------------------------------------------------------------------------------


----------------------
SHARK INTEGRAL PACKAGE
----------------------

Number of atoms                             ...      7
Number of basis functions                   ...     53
Number of shells                            ...     27
Maximum angular momentum                    ...      2
Integral batch strategy                     ... SHARK/LIBINT Hybrid
RI-J (if used) integral strategy            ... SPLIT-RIJ (Revised 2003 algorithm where possible)
Printlevel                                  ...      1
Contraction scheme used                     ... SEGMENTED contraction
Prescreening option                         ... SCHWARTZ
   Thresh                                   ... 2.500e-11
   Tcut                                     ... 2.500e-12
   Tpresel                                  ... 2.500e-12 
Coulomb Range Separation                    ... NOT USED
Exchange Range Separation                   ... NOT USED
Multipole approximations                    ... NOT USED
Finite Nucleus Model                        ... NOT USED
CABS basis                                  ... NOT available
Auxiliary Coulomb fitting basis             ... AVAILABLE
   # of basis functions in Aux-J            ...    153
   # of shells in Aux-J                     ...     55
   Maximum angular momentum in Aux-J        ...      4
Auxiliary J/K fitting basis                 ... NOT available
Auxiliary Correlation fitting basis         ... NOT available
Auxiliary 'external' fitting basis          ... NOT available

Checking pre-screening integrals            ... done (  0.0 sec) Dimension = 27
Check shell pair data                       ... done (  0.0 sec)
Shell pair information
Shell pair cut-off parameter TPreSel        ...   2.5e-12
Total number of shell pairs                 ...       378
Shell pairs after pre-screening             ...       378
Total number of primitive shell pairs       ...      1266
Primitive shell pairs kept                  ...      1148
          la=0 lb=0:    136 shell pairs
          la=1 lb=0:    144 shell pairs
          la=1 lb=1:     45 shell pairs
          la=2 lb=0:     32 shell pairs
          la=2 lb=1:     18 shell pairs
          la=2 lb=2:      3 shell pairs

Calculating one electron integrals          ... done (  0.0 sec)
Calculating RI/J V-Matrix + Cholesky decomp.... done (  0.0 sec)
Calculating Nuclear repulsion               ... done (  0.0 sec) ENN=     37.065249822075 Eh

Diagonalization of the overlap matrix:
Smallest eigenvalue                        ... 5.029e-03
Time for diagonalization                   ...    0.002 sec
Threshold for overlap eigenvalues          ... 1.000e-07
Number of eigenvalues below threshold      ... 0
Time for construction of square roots      ...    0.005 sec
Total time needed                          ...    0.009 sec

-------------------
DFT GRID GENERATION
-------------------

General Integration Accuracy     IntAcc      ... 4.388
Radial Grid Type                 RadialGrid  ... OptM3 with GC (2021)
Angular Grid (max. ang.)         AngularGrid ... 4 (Lebedev-302)
Angular grid pruning method      GridPruning ... 4 (adaptive)
Weight generation scheme         WeightScheme... mBecke (2022)
Basis function cutoff            BFCut       ... 1.0000e-11
Integration weight cutoff        WCut        ... 1.0000e-14
Partially contracted basis set               ... off
Rotationally invariant grid construction     ... off
Angular grids for H and He will be reduced by one unit

Total number of grid points                  ...    28510
Total number of batches                      ...      449
Average number of points per batch           ...       63
Average number of grid points per atom       ...     4073

--------------------
COSX GRID GENERATION
--------------------

GRIDX 1
-------
General Integration Accuracy     IntAcc      ... 3.816
Radial Grid Type                 RadialGrid  ... OptM3 with GC (2021)
Angular Grid (max. ang.)         AngularGrid ... 1 (Lebedev-50)
Angular grid pruning method      GridPruning ... 4 (adaptive)
Weight generation scheme         WeightScheme... mBecke (2022)
Basis function cutoff            BFCut       ... 1.0000e-11
Integration weight cutoff        WCut        ... 1.0000e-14
Partially contracted basis set               ... on
Rotationally invariant grid construction     ... off
Angular grids for H and He will be reduced by one unit

Total number of grid points                  ...     3710
Total number of batches                      ...       34
Average number of points per batch           ...      109
Average number of grid points per atom       ...      530
UseSFitting                                  ... on

GRIDX 2
-------
General Integration Accuracy     IntAcc      ... 4.020
Radial Grid Type                 RadialGrid  ... OptM3 with GC (2021)
Angular Grid (max. ang.)         AngularGrid ... 2 (Lebedev-110)
Angular grid pruning method      GridPruning ... 4 (adaptive)
Weight generation scheme         WeightScheme... mBecke (2022)
Basis function cutoff            BFCut       ... 1.0000e-11
Integration weight cutoff        WCut        ... 1.0000e-14
Partially contracted basis set               ... on
Rotationally invariant grid construction     ... off
Angular grids for H and He will be reduced by one unit

Total number of grid points                  ...     7666
Total number of batches                      ...       64
Average number of points per batch           ...      119
Average number of grid points per atom       ...     1095
UseSFitting                                  ... on

GRIDX 3
-------
General Integration Accuracy     IntAcc      ... 4.338
Radial Grid Type                 RadialGrid  ... OptM3 with GC (2021)
Angular Grid (max. ang.)         AngularGrid ... 3 (Lebedev-194)
Angular grid pruning method      GridPruning ... 4 (adaptive)
Weight generation scheme         WeightScheme... mBecke (2022)
Basis function cutoff            BFCut       ... 1.0000e-11
Integration weight cutoff        WCut        ... 1.0000e-14
Partially contracted basis set               ... on
Rotationally invariant grid construction     ... off
Angular grids for H and He will be reduced by one unit

Total number of grid points                  ...    16844
Total number of batches                      ...      134
Average number of points per batch           ...      125
Average number of grid points per atom       ...     2406
UseSFitting                                  ... on
Initializing property integral containers    ... done (  0.0 sec)

SHARK setup successfully completed in   0.3 seconds

Maximum memory used throughout the entire STARTUP-calculation: 12.3 MB
-------------------------------------------------------------------------------
                                 ORCA GUESS
                   Start orbitals & Density for SCF / CASSCF
-------------------------------------------------------------------------------

------------
SCF SETTINGS
------------
Hamiltonian:
 Density Functional     Method          .... DFT(GTOs)
 Exchange Functional    Exchange        .... B88
   X-Alpha parameter    XAlpha          ....  0.666667
   Becke's b parameter  XBeta           ....  0.004200
 Correlation Functional Correlation     .... LYP
 LDA part of GGA corr.  LDAOpt          .... VWN-5
 Gradients option       PostSCFGGA      .... off
 Hybrid DFT is turned on
   Fraction HF Exchange ScalHFX         ....  0.200000
   Scaling of DF-GGA-X  ScalDFX         ....  0.720000
   Scaling of DF-GGA-C  ScalDFC         ....  0.810000
   Scaling of DF-LDA-C  ScalLDAC        ....  1.000000
   Perturbative correction              ....  0.000000
   NL short-range parameter             ....  4.800000
 RI-approximation to the Coulomb term is turned on
   Number of AuxJ basis functions       .... 153
   RIJ-COSX (HFX calculated with COS-X)).... on


General Settings:
 Integral files         IntName         .... molecule
 Hartree-Fock type      HFTyp           .... RHF
 Total Charge           Charge          ....    1
 Multiplicity           Mult            ....    1
 Number of Electrons    NEL             ....   16
 Basis Dimension        Dim             ....   53
 Nuclear Repulsion      ENuc            ....     37.0652498221 Eh

Convergence Acceleration:
 AO-DIIS                CNVDIIS         .... on
   Start iteration      DIISMaxIt       ....    12
   Startup error        DIISStart       ....  0.200000
   # of expansion vecs  DIISMaxEq       ....     5
   Bias factor          DIISBfac        ....   1.050
   Max. coefficient     DIISMaxC        ....  10.000
 MO-DIIS                CNVKDIIS        .... off
 Trust-Rad. Augm. Hess. CNVTRAH         .... auto
   Auto Start mean grad. ratio tolernc. ....  1.125000
   Auto Start start iteration           ....    50
   Auto Start num. interpolation iter.  ....    10
   Max. Number of Micro iterations      ....    24
   Max. Number of Macro iterations      .... Maxiter - #DIIS iter
   Number of Davidson start vectors     ....     2
   Converg. threshold    (grad. norm)   ....   1.000e-05
   Grad. Scal. Fac. for Micro threshold ....   0.100
   Minimum threshold for Micro iter.    ....   1.000e-02
   NR start threshold (gradient norm)   ....   1.000e-04
   Initial trust radius                 ....   0.400
   Minimum AH scaling param. (alpha)    ....   1.000
   Maximum AH scaling param. (alpha)    .... 1000.000
   Quad. conv. algorithm                .... NR
   White noise on init. David. guess    .... on
   Maximum white noise                  ....   0.010
   Pseudo random numbers                .... off
   Inactive MOs                         .... canonical
   Orbital update algorithm             .... Taylor
   Preconditioner                       .... Diag
   Full preconditioner red. dimension   ....   250
 SOSCF                  CNVSOSCF        .... on
   Start iteration      SOSCFMaxIt      ....   150
   Startup grad/error   SOSCFStart      ....  0.003300
   Hessian update       SOSCFHessUp     .... L-BFGS
 Level Shifting         CNVShift        .... on
   Level shift para.    LevelShift      ....    0.2500
   Turn off err/grad.   ShiftErr        ....    0.0010
 Zerner damping         CNVZerner       .... off
 Static damping         CNVDamp         .... on
   Fraction old density DampFac         ....    0.7000
   Max. Damping (<1)    DampMax         ....    0.9800
   Min. Damping (>=0)   DampMin         ....    0.0000
   Turn off err/grad.   DampErr         ....    0.1000

SCF Procedure:
 Maximum # iterations   MaxIter         ....   125
 SCF integral mode      SCFMode         .... Direct
   Integral package                     .... SHARK and LIBINT hybrid scheme
 Reset frequency        DirectResetFreq ....    20
 Integral Threshold     Thresh          ....  2.500e-11 Eh
 Primitive CutOff       TCut            ....  2.500e-12 Eh

Convergence Tolerance:
 Convergence Check Mode ConvCheckMode   .... Total+1el-Energy
 Convergence forced     ConvForced      .... 0
 Energy Change          TolE            ....  1.000e-08 Eh
 1-El. energy change                    ....  1.000e-05 Eh
 Orbital Gradient       TolG            ....  1.000e-05
 Orbital Rotation angle TolX            ....  1.000e-05
 DIIS Error             TolErr          ....  5.000e-07

------------------------------
INITIAL GUESS: MODEL POTENTIAL
------------------------------
Loading Hartree-Fock densities                     ... done
Calculating cut-offs                               ... done
Initializing the effective Hamiltonian             ... done
Setting up the integral package (SHARK)            ... done
Starting the Coulomb interaction                   ... done (   0.0 sec)
Making the grid                                    ... done (   0.0 sec)
Mapping shells                                     ... done
Starting the XC term evaluation                    ... done (   0.0 sec)
  promolecular density results
     # of electrons  =     16.998155429
     EX              =    -11.717183139
     EC              =     -0.516490400
     EX+EC           =    -12.233673539
Transforming the Hamiltonian                       ... done (   0.0 sec)
Diagonalizing the Hamiltonian                      ... done (   0.0 sec)
Back transforming the eigenvectors                 ... done (   0.0 sec)
Now organizing SCF variables                       ... done
                      ------------------
                      INITIAL GUESS DONE (   0.1 sec)
                      ------------------
             **** ENERGY FILE WAS UPDATED (molecule.en.tmp) ****
Finished Guess after   0.1 sec
Maximum memory used throughout the entire GUESS-calculation: 6.5 MB

-------------------------------------------------------------------------------------------
                                      ORCA LEAN-SCF
                              memory conserving SCF solver
-------------------------------------------------------------------------------------------

----------------------------------------D-I-I-S--------------------------------------------
Iteration    Energy (Eh)           Delta-E    RMSDP     MaxDP     DIISErr   Damp  Time(sec)
-------------------------------------------------------------------------------------------
               ***  Starting incremental Fock matrix formation  ***
    1    -78.6837809187015296     0.00e+00  4.14e-03  6.90e-02  1.48e-01  0.700   0.3
    2    -78.7048206167830244    -2.10e-02  2.86e-03  4.26e-02  7.14e-02  0.700   0.2
                               ***Turning on AO-DIIS***
    3    -78.7129657550432853    -8.15e-03  1.24e-03  1.36e-02  2.62e-02  0.700   0.2
    4    -78.7175551657013557    -4.59e-03  2.42e-03  2.67e-02  1.21e-02  0.000   0.2
    5    -78.7277245846351832    -1.02e-02  3.29e-04  3.22e-03  7.23e-03  0.000   0.2
                              *** Initializing SOSCF ***
---------------------------------------S-O-S-C-F--------------------------------------
Iteration    Energy (Eh)           Delta-E    RMSDP     MaxDP     MaxGrad    Time(sec)
--------------------------------------------------------------------------------------
    6    -78.7278361765759769    -1.12e-04  1.10e-04  1.09e-03  2.61e-03     0.2
               *** Restarting incremental Fock matrix formation ***
    7    -78.7278321130129655     4.06e-06  8.88e-05  1.07e-03  5.00e-04     0.3
    8    -78.7278334078679904    -1.29e-06  5.22e-05  6.62e-04  3.62e-04     0.3
    9    -78.7278345359441687    -1.13e-06  1.85e-05  3.50e-04  7.59e-05     0.2
   10    -78.7278346024821758    -6.65e-08  6.21e-06  1.05e-04  4.22e-05     0.2
   11    -78.7278346158581428    -1.34e-08  2.16e-06  3.26e-05  1.07e-05     0.2
   12    -78.7278346180060282    -2.15e-09  7.55e-07  7.54e-06  3.14e-06     0.2
                 **** Energy Check signals convergence ****

               *****************************************************
               *                     SUCCESS                       *
               *           SCF CONVERGED AFTER  12 CYCLES          *
               *****************************************************

Recomputing exchange energy using gridx3       ... done (    0.263 sec)
Old exchange energy                            :     -2.356962986 Eh
New exchange energy                            :     -2.356952942 Eh
Exchange energy change after final integration :      0.000010043 Eh
Total energy after final integration           :    -78.727824575 Eh
             **** ENERGY FILE WAS UPDATED (molecule.en.tmp) ****

----------------
TOTAL SCF ENERGY
----------------

Total Energy       :        -78.72782457457211 Eh           -2142.29302 eV

Components:
Nuclear Repulsion  :         37.06524982207545 Eh            1008.59672 eV
Electronic Energy  :       -115.79308444008149 Eh           -3150.89002 eV
One Electron Energy:       -172.96719402709527 Eh           -4706.67663 eV
Two Electron Energy:         57.17410958701379 Eh            1555.78662 eV

Virial components:
Potential Energy   :       -156.49263073634657 Eh           -4258.38097 eV
Kinetic Energy     :         77.76480616177446 Eh            2116.08796 eV
Virial Ratio       :          2.01238373064024

DFT components:
N(Alpha)           :        7.999999845342 electrons
N(Beta)            :        7.999999845342 electrons
N(Total)           :       15.999999690684 electrons
E(X)               :       -9.331899352191 Eh       
E(C)               :       -0.587284206504 Eh       
E(XC)              :       -9.919183558696 Eh       

---------------
SCF CONVERGENCE
---------------

  Last Energy change         ...    2.1479e-09  Tolerance :   1.0000e-08
  Last MAX-Density change    ...    7.5406e-06  Tolerance :   1.0000e-07
  Last RMS-Density change    ...    7.5511e-07  Tolerance :   5.0000e-09
  Last DIIS Error            ...    2.6107e-03  Tolerance :   5.0000e-07
  Last Orbital Gradient      ...    3.1364e-06  Tolerance :   1.0000e-05
  Last Orbital Rotation      ...    9.0198e-06  Tolerance :   1.0000e-05


----------------
ORBITAL ENERGIES
----------------

  NO   OCC          E(Eh)            E(eV) 
   0   2.0000     -10.582644      -287.9684 
   1   2.0000     -10.455009      -284.4953 
   2   2.0000      -1.051299       -28.6073 
   3   2.0000      -0.891685       -24.2640 
   4   2.0000      -0.758690       -20.6450 
   5   2.0000      -0.694563       -18.9000 
   6   2.0000      -0.682238       -18.5646 
   7   2.0000      -0.631406       -17.1814 
   8   0.0000      -0.416858       -11.3433 
   9   0.0000      -0.148832        -4.0499 
  10   0.0000      -0.116131        -3.1601 
  11   0.0000      -0.113902        -3.0994 
  12   0.0000      -0.075238        -2.0473 
  13   0.0000      -0.045645        -1.2421 
  14   0.0000      -0.020229        -0.5505 
  15   0.0000       0.158595         4.3156 
  16   0.0000       0.159749         4.3470 
  17   0.0000       0.202877         5.5206 
  18   0.0000       0.214034         5.8242 
*Only the first 10 virtual orbitals were printed.

                    ********************************
                    * MULLIKEN POPULATION ANALYSIS *
                    ********************************

-----------------------
MULLIKEN ATOMIC CHARGES
-----------------------
   0 C :    0.212423
   1 C :   -0.068772
   2 H :    0.186735
   3 H :    0.186662
   4 H :    0.145983
   5 H :    0.145850
   6 H :    0.191118
Sum of atomic charges:    1.0000000

--------------------------------
MULLIKEN REDUCED ORBITAL CHARGES
--------------------------------
  0 C s       :     3.316646  s :     3.316646
      pz      :     1.092027  p :     2.445469
      px      :     1.059253
      py      :     0.294189
      dz2     :     0.004521  d :     0.025461
      dxz     :     0.011854
      dyz     :     0.001137
      dx2y2   :     0.003476
      dxy     :     0.004472

  1 C s       :     3.051849  s :     3.051849
      pz      :     1.099055  p :     2.993702
      px      :     0.864687
      py      :     1.029961
      dz2     :     0.005822  d :     0.023221
      dxz     :     0.003909
      dyz     :     0.005099
      dx2y2   :     0.007552
      dxy     :     0.000839

  2 H s       :     0.789958  s :     0.789958
      pz      :     0.015404  p :     0.023307
      px      :     0.007060
      py      :     0.000842

  3 H s       :     0.790028  s :     0.790028
      pz      :     0.013806  p :     0.023310
      px      :     0.007070
      py      :     0.002435

  4 H s       :     0.829273  s :     0.829273
      pz      :     0.009859  p :     0.024744
      px      :     0.005014
      py      :     0.009870

  5 H s       :     0.829378  s :     0.829378
      pz      :     0.013896  p :     0.024772
      px      :     0.005014
      py      :     0.005863

  6 H s       :     0.781283  s :     0.781283
      pz      :     0.005975  p :     0.027599
      px      :     0.008181
      py      :     0.013442



                     *******************************
                     * LOEWDIN POPULATION ANALYSIS *
                     *******************************

----------------------
LOEWDIN ATOMIC CHARGES
----------------------
   0 C :    0.497485
   1 C :   -0.021384
   2 H :    0.090882
   3 H :    0.090829
   4 H :    0.096668
   5 H :    0.096382
   6 H :    0.149139

-------------------------------
LOEWDIN REDUCED ORBITAL CHARGES
-------------------------------
  0 C s       :     2.982200  s :     2.982200
      pz      :     1.093617  p :     2.466240
      px      :     1.081398
      py      :     0.291225
      dz2     :     0.011369  d :     0.054075
      dxz     :     0.025015
      dyz     :     0.002410
      dx2y2   :     0.008012
      dxy     :     0.007268

  1 C s       :     2.839515  s :     2.839515
      pz      :     1.105663  p :     3.119210
      px      :     0.976179
      py      :     1.037368
      dz2     :     0.014863  d :     0.062660
      dxz     :     0.009226
      dyz     :     0.012936
      dx2y2   :     0.021942
      dxy     :     0.003693

  2 H s       :     0.835245  s :     0.835245
      pz      :     0.048251  p :     0.073873
      px      :     0.022856
      py      :     0.002765

  3 H s       :     0.835281  s :     0.835281
      pz      :     0.042927  p :     0.073890
      px      :     0.022882
      py      :     0.008081

  4 H s       :     0.834162  s :     0.834162
      pz      :     0.028185  p :     0.069171
      px      :     0.013523
      py      :     0.027462

  5 H s       :     0.834318  s :     0.834318
      pz      :     0.039697  p :     0.069300
      px      :     0.013533
      py      :     0.016070

  6 H s       :     0.778736  s :     0.778736
      pz      :     0.014838  p :     0.072124
      px      :     0.020482
      py      :     0.036804



                      *****************************
                      * MAYER POPULATION ANALYSIS *
                      *****************************

  NA   - Mulliken gross atomic population
  ZA   - Total nuclear charge
  QA   - Mulliken gross atomic charge
  VA   - Mayer's total valence
  BVA  - Mayer's bonded valence
  FA   - Mayer's free valence

  ATOM       NA         ZA         QA         VA         BVA        FA
  0 C      5.7876     6.0000     0.2124     3.3371     3.3371    -0.0000
  1 C      6.0688     6.0000    -0.0688     3.9646     3.9646    -0.0000
  2 H      0.8133     1.0000     0.1867     0.9503     0.9503     0.0000
  3 H      0.8133     1.0000     0.1867     0.9503     0.9503    -0.0000
  4 H      0.8540     1.0000     0.1460     0.9778     0.9778    -0.0000
  5 H      0.8541     1.0000     0.1459     0.9778     0.9778    -0.0000
  6 H      0.8089     1.0000     0.1911     0.9754     0.9754    -0.0000

  Mayer bond orders larger than 0.100000
B(  0-C ,  1-C ) :   1.2688 B(  0-C ,  2-H ) :   0.9405 B(  0-C ,  3-H ) :   0.9405 
B(  0-C ,  6-H ) :   0.1190 B(  1-C ,  4-H ) :   0.9275 B(  1-C ,  5-H ) :   0.9276 
B(  1-C ,  6-H ) :   0.8375 

-------
TIMINGS
-------

Total SCF time: 0 days 0 hours 0 min 3 sec 

Total time                  ....       3.203 sec
Sum of individual times     ....       3.133 sec  ( 97.8%)

SCF preparation             ....       0.070 sec  (  2.2%)
Fock matrix formation       ....       2.706 sec  ( 84.5%)
  Startup                   ....       0.055 sec  (  2.0% of F)
  Split-RI-J                ....       0.214 sec  (  7.9% of F)
  Chain of spheres X        ....       1.538 sec  ( 56.8% of F)
  XC integration            ....       0.717 sec  ( 26.5% of F)
    Basis function eval.    ....       0.264 sec  ( 36.9% of XC)
    Density eval.           ....       0.090 sec  ( 12.5% of XC)
    XC-Functional eval.     ....       0.087 sec  ( 12.1% of XC)
    XC-Potential eval.      ....       0.115 sec  ( 16.0% of XC)
Diagonalization             ....       0.000 sec  (  0.0%)
Density matrix formation    ....       0.103 sec  (  3.2%)
Total Energy calculation    ....       0.035 sec  (  1.1%)
Population analysis         ....       0.024 sec  (  0.7%)
Orbital Transformation      ....       0.019 sec  (  0.6%)
Orbital Orthonormalization  ....       0.000 sec  (  0.0%)
DIIS solution               ....       0.111 sec  (  3.5%)
SOSCF solution              ....       0.066 sec  (  2.1%)
Finished LeanSCF after   3.2 sec

Maximum memory used throughout the entire LEANSCF-calculation: 6.8 MB

------------------------------------------------------------------------------
                         ORCA PROPERTY INTEGRAL CALCULATIONS
------------------------------------------------------------------------------

GBWName                                   ... molecule.gbw
Number of atoms                           ...      7
Number of basis functions                 ...     53
Max core memory                           ...   1024 MB

Dipole integrals                          ... YES
Quadrupole integrals                      ...  NO
Linear momentum integrals                 ...  NO
Angular momentum integrals                ...  NO
Higher moments length integrals           ...  NO
Higher moments velocity integrals         ...  NO
Kinetic energy integrals                  ...  NO
GIAO right hand sides                     ...  NO
GIAO dipole derivative integrals          ...  NO
SOC integrals                             ...  NO
EPR diamagnetic integrals (GIAO)          ...  NO
EPR gauge integrals                       ...  NO
Field gradient integrals                  ...  NO (   0 nuclei)
Spin-dipole/Fermi contact integrals       ...  NO (   0 nuclei)
Contact density integrals                 ...  NO (   0 nuclei)
Nucleus-orbit integrals                   ...  NO (   0 nuclei)
Geometric perturbations                   ...  NO (   7 nuclei)

Choice of electric origin   ... Center of mass
Position of electric origin ... (  3.5321,  0.0408, -0.0771) 
Choice of magnetic origin   ... GIAO
Position of magnetic origin ... (  0.0000,  0.0000,  0.0000) 

Calculating integrals                     ... Electric Dipole (Length)     done (  0.0 sec)

Property integrals calculated in   0.0 sec

Maximum memory used throughout the entire PROPINT-calculation: 6.1 MB


-------------------------------------------------------------------------------
                          DFT DISPERSION CORRECTION                            
                                                                               
                                DFTD4 V3.4.0                                   
-------------------------------------------------------------------------------
The B3LYP functional is recognized
Active option DFTDOPT                   ...         5   

-------------------------   ----------------
Dispersion correction           -0.002543589
-------------------------   ----------------


-------------------------   --------------------
FINAL SINGLE POINT ENERGY       -78.730368163374
-------------------------   --------------------

------------------------------------------------------------------------------
                         ORCA SCF GRADIENT CALCULATION
------------------------------------------------------------------------------

Nuc. rep. gradient        (SHARK) ... done (  0.0 sec)
HCore & Overlap gradient  (SHARK) ... done (  0.0 sec)
Split-RIJ-J gradient      (SHARK) ... done (  0.1 sec)
COSX-gradient                     ... done (  1.3 sec)
XC gradient                       ... done (  0.2 sec)
Dispersion correction             ... done (  0.0 sec)

-------------------
DISPERSION GRADIENT
-------------------

   1   C   :   -0.000035247    0.000007885   -0.000001592
   2   C   :    0.000039859   -0.000005444    0.000001088
   3   H   :   -0.000027400    0.000001517   -0.000010021
   4   H   :   -0.000027383    0.000005253    0.000008615
   5   H   :    0.000015530   -0.000010273   -0.000006931
   6   H   :    0.000015510   -0.000006803    0.000010411
   7   H   :    0.000019130    0.000007866   -0.000001569

Difference to translation invariance:
           :   -0.0000000000    0.0000000000   -0.0000000000

Difference to rotation invariance:
           :    0.0000000000    0.0000000000    0.0000000000

Norm of the Dispersion gradient    ...    0.0000764984
RMS gradient                       ...    0.0000166933
MAX gradient                       ...    0.0000398590

------------------
CARTESIAN GRADIENT
------------------

   1   C   :   -0.057012864   -0.015356345    0.003080442
   2   C   :    0.050606019    0.034336481   -0.006400710
   3   H   :    0.010109405    0.005857875    0.009635213
   4   H   :    0.010232439    0.001666824   -0.011213230
   5   H   :   -0.004307894   -0.002155648    0.011982817
   6   H   :   -0.004447736   -0.006466784   -0.010679291
   7   H   :   -0.005179369   -0.017882402    0.003594760

Difference to translation invariance:
           :   -0.0000000000   -0.0000000000   -0.0000000000

Difference to rotation invariance:
           :   -0.0000053589   -0.0000019757    0.0000114141

Norm of the Cartesian gradient     ...    0.0918762491
RMS gradient                       ...    0.0200490412
MAX gradient                       ...    0.0570128643

-------
TIMINGS
-------

Total SCF gradient time     ....        1.630 sec

Densities                   ....       0.000 sec  (  0.0%)
One electron gradient       ....       0.008 sec  (  0.5%)
RI-J Coulomb gradient       ....       0.089 sec  (  5.4%)
COSX gradient               ....       1.254 sec  ( 76.9%)
XC gradient                 ....       0.244 sec  ( 14.9%)

Maximum memory used throughout the entire SCFGRAD-calculation: 25.8 MB
------------------------------------------------------------------------------
                         ORCA GEOMETRY RELAXATION STEP
------------------------------------------------------------------------------

Reading the OPT-File                    .... done
Getting information on internals        .... done
Copying old internal coords+grads       .... done
Making the new internal coordinates     .... (2022 redundants) done
Validating the new internal coordinates .... (2022 redundants) done
Calculating the B-matrix                .... done
Calculating the G,G- and P matrices     .... done
Transforming gradient to internals      .... done
Projecting the internal gradient        .... done
Number of atoms                         ....   7
Number of internal coordinates          ....  20
Current Energy                          ....   -78.730368163 Eh
Current gradient norm                   ....     0.091876249 Eh/bohr
Maximum allowed component of the step   ....  0.300
Current trust radius                    ....  0.300
Evaluating the initial hessian          ....  (Almloef) done
Projecting the Hessian                  .... done
Forming the augmented Hessian           .... done
Diagonalizing the augmented Hessian     .... done
Last element of RFO vector              ....  0.924459655
Lowest eigenvalues of augmented Hessian:
 -0.011246635  0.014464640  0.020394780  0.139007690  0.185149085
Length of the computed step             ....  0.412435389
Warning: the length of the step is outside the trust region - taking restricted step instead
The input lambda is                     ....     0.013465
   iter:   5  x=   -0.004956  g=   66.928987 f(x)=     0.437076
   iter:  10  x=   -0.024257  g=    3.474714 f(x)=     0.000048
The output lambda is                    ....    -0.024257 (12 iterations)
The final length of the internal step   ....  0.300000000
Converting the step to Cartesian space:
 Initial RMS(Int)=    0.0670820393
Transforming coordinates:
 Iter   0:  RMS(Cart)=    0.0389755248 RMS(Int)=    0.0675525330
 Iter   5:  RMS(Cart)=    0.0000002063 RMS(Int)=    0.0000002302
done
Storing new coordinates                 .... done

                                .--------------------.
          ----------------------|Geometry convergence|-------------------------
          Item                value                   Tolerance       Converged
          ---------------------------------------------------------------------
          RMS gradient        0.0113787421            0.0000300000      NO
          MAX gradient        0.0351793456            0.0001000000      NO
          RMS step            0.0670820393            0.0006000000      NO
          MAX step            0.1807564180            0.0010000000      NO
          ........................................................
          Max(Bonds)      0.0399      Max(Angles)    2.63
          Max(Dihed)       10.36      Max(Improp)    0.00
          ---------------------------------------------------------------------

The optimization has not yet converged - more geometry cycles are needed


    ---------------------------------------------------------------------------
                         Redundant Internal Coordinates
                            (Angstroem and degrees)

        Definition                    Value    dE/dq     Step     New-Value
    ----------------------------------------------------------------------------
     1. B(C   1,C   0)                1.4837  0.035179 -0.0399    1.4439   
     2. B(H   2,C   0)                1.0837 -0.013469  0.0181    1.1018   
     3. B(H   3,C   0)                1.0835 -0.013589  0.0183    1.1018   
     4. B(H   4,C   1)                1.0939 -0.008072  0.0113    1.1052   
     5. B(H   5,C   1)                1.0931 -0.008573  0.0119    1.1051   
     6. B(H   6,C   1)                1.0934 -0.018513  0.0258    1.1191   
     7. A(H   2,C   0,H   3)          118.94  0.003796    0.03    118.97   
     8. A(C   1,C   0,H   3)          120.09 -0.002812    1.07    121.16   
     9. A(C   1,C   0,H   2)          120.16 -0.002676    1.05    121.21   
    10. A(H   4,C   1,H   5)          108.33 -0.006246    2.63    110.96   
    11. A(C   0,C   1,H   5)          110.35 -0.004811    1.16    111.50   
    12. A(C   0,C   1,H   6)          110.23  0.010432   -2.36    107.87   
    13. A(H   5,C   1,H   6)          108.78  0.000454   -0.72    108.07   
    14. A(H   4,C   1,H   6)          108.75  0.003339   -1.48    107.26   
    15. A(C   0,C   1,H   4)          110.35 -0.003293    0.80    111.15   
    16. D(H   4,C   1,C   0,H   3)    155.05 -0.000689   -5.84    149.21   
    17. D(H   5,C   1,C   0,H   2)   -155.06  0.001867    3.32   -151.74   
    18. D(H   5,C   1,C   0,H   3)     35.35  0.012246  -10.36     25.00   
    19. D(H   6,C   1,C   0,H   2)     84.76 -0.002321    4.99     89.75   
    20. D(H   4,C   1,C   0,H   2)    -35.37 -0.011069    7.84    -27.53   
    ----------------------------------------------------------------------------

Geometry step timings:
Preparation and reading OPT file:      0.001 s ( 5.882 %)
Internal coordinates            :      0.000 s ( 0.227 %)
B/P matrices and projection     :      0.000 s ( 1.246 %)
Hessian update/contruction      :      0.007 s (62.213 %)
Making the step                 :      0.000 s ( 2.313 %)
Converting the step to Cartesian:      0.000 s ( 0.576 %)
Storing new data                :      0.001 s ( 4.834 %)
Checking convergence            :      0.000 s ( 0.019 %)
Final printing                  :      0.002 s (22.642 %)
Total time                      :      0.011 s

Time for energy+gradient        :      5.549 s
Time for complete geometry iter :      5.824 s

         *************************************************************
         *                GEOMETRY OPTIMIZATION CYCLE   2            *
         *************************************************************
---------------------------------
CARTESIAN COORDINATES (ANGSTROEM)
---------------------------------
  C      1.142405    0.175090   -0.071368
  C      2.559916   -0.093514   -0.014145
  H      0.589430    0.081749   -1.019796
  H      0.579939    0.424783    0.842579
  H      2.859968   -0.815659   -0.795065
  H      2.864577   -0.446850    0.987597
  H      3.099495    0.864391   -0.223332

----------------------------
CARTESIAN COORDINATES (A.U.)
----------------------------
  NO LB      ZA    FRAG     MASS         X           Y           Z
   0 C     6.0000    0    12.011    2.158832    0.330871   -0.134866
   1 C     6.0000    0    12.011    4.837540   -0.176716   -0.026730
   2 H     1.0000    0     1.008    1.113860    0.154484   -1.927135
   3 H     1.0000    0     1.008    1.095926    0.802723    1.592244
   4 H     1.0000    0     1.008    5.404557   -1.541371   -1.502455
   5 H     1.0000    0     1.008    5.413266   -0.844425    1.866288
   6 H     1.0000    0     1.008    5.857198    1.633462   -0.422036

--------------------------------
INTERNAL COORDINATES (ANGSTROEM)
--------------------------------
 C      0   0   0     0.000000000000     0.00000000     0.00000000
 C      1   0   0     1.443869694405     0.00000000     0.00000000
 H      1   2   0     1.101820976674   120.73493144     0.00000000
 H      1   2   3     1.101823183113   120.69389223   176.67344337
 H      2   1   3     1.105151905152   111.10639100   332.51562868
 H      2   1   3     1.105057435051   111.47361520   208.26647251
 H      2   1   3     1.119145720817   107.86033110    89.77887785

---------------------------
INTERNAL COORDINATES (A.U.)
---------------------------
 C      0   0   0     0.000000000000     0.00000000     0.00000000
 C      1   0   0     2.728518295494     0.00000000     0.00000000
 H      1   2   0     2.082139894524   120.73493144     0.00000000
 H      1   2   3     2.082144064089   120.69389223   176.67344337
 H      2   1   3     2.088434437118   111.10639100   332.51562868
 H      2   1   3     2.088255914500   111.47361520   208.26647251
 H      2   1   3     2.114878916294   107.86033110    89.77887785

------------------------------------------------------------------------------
                   ___                                                        
                  /   \      - P O W E R E D   B Y -                         
                 /     \                                                     
                 |  |  |   _    _      __       _____    __    __             
                 |  |  |  | |  | |    /  \     |  _  \  |  |  /  |          
                  \  \/   | |  | |   /    \    | | | |  |  | /  /          
                 / \  \   | |__| |  /  /\  \   | |_| |  |  |/  /          
                |  |  |   |  __  | /  /__\  \  |    /   |      \           
                |  |  |   | |  | | |   __   |  |    \   |  |\   \          
                \     /   | |  | | |  |  |  |  | |\  \  |  | \   \       
                 \___/    |_|  |_| |__|  |__|  |_| \__\ |__|  \__/        
                                                                              
                      - O R C A' S   B I G   F R I E N D -                    
                                      &                                       
                       - I N T E G R A L  F E E D E R -                       
                                                                              
 v1 FN, 2020, v2 2021, v3 2022-2024                                           
------------------------------------------------------------------------------


----------------------
SHARK INTEGRAL PACKAGE
----------------------

Number of atoms                             ...      7
Number of basis functions                   ...     53
Number of shells                            ...     27
Maximum angular momentum                    ...      2
Integral batch strategy                     ... SHARK/LIBINT Hybrid
RI-J (if used) integral strategy            ... SPLIT-RIJ (Revised 2003 algorithm where possible)
Printlevel                                  ...      1
Contraction scheme used                     ... SEGMENTED contraction
Prescreening option                         ... SCHWARTZ
   Thresh                                   ... 2.500e-11
   Tcut                                     ... 2.500e-12
   Tpresel                                  ... 2.500e-12 
Coulomb Range Separation                    ... NOT USED
Exchange Range Separation                   ... NOT USED
Multipole approximations                    ... NOT USED
Finite Nucleus Model                        ... NOT USED
CABS basis                                  ... NOT available
Auxiliary Coulomb fitting basis             ... AVAILABLE
   # of basis functions in Aux-J            ...    153
   # of shells in Aux-J                     ...     55
   Maximum angular momentum in Aux-J        ...      4
Auxiliary J/K fitting basis                 ... NOT available
Auxiliary Correlation fitting basis         ... NOT available
Auxiliary 'external' fitting basis          ... NOT available

Checking pre-screening integrals            ... done (  0.0 sec) Dimension = 27
Check shell pair data                       ... done (  0.0 sec)
Shell pair information
Shell pair cut-off parameter TPreSel        ...   2.5e-12
Total number of shell pairs                 ...       378
Shell pairs after pre-screening             ...       378
Total number of primitive shell pairs       ...      1266
Primitive shell pairs kept                  ...      1148
          la=0 lb=0:    136 shell pairs
          la=1 lb=0:    144 shell pairs
          la=1 lb=1:     45 shell pairs
          la=2 lb=0:     32 shell pairs
          la=2 lb=1:     18 shell pairs
          la=2 lb=2:      3 shell pairs

Calculating one electron integrals          ... done (  0.0 sec)
Calculating RI/J V-Matrix + Cholesky decomp.... done (  0.0 sec)
Calculating Nuclear repulsion               ... done (  0.0 sec) ENN=     37.252904587172 Eh

Diagonalization of the overlap matrix:
Smallest eigenvalue                        ... 4.486e-03
Time for diagonalization                   ...    0.000 sec
Threshold for overlap eigenvalues          ... 1.000e-07
Number of eigenvalues below threshold      ... 0
Time for construction of square roots      ...    0.003 sec
Total time needed                          ...    0.005 sec

-------------------
DFT GRID GENERATION
-------------------

General Integration Accuracy     IntAcc      ... 4.388
Radial Grid Type                 RadialGrid  ... OptM3 with GC (2021)
Angular Grid (max. ang.)         AngularGrid ... 4 (Lebedev-302)
Angular grid pruning method      GridPruning ... 4 (adaptive)
Weight generation scheme         WeightScheme... mBecke (2022)
Basis function cutoff            BFCut       ... 1.0000e-11
Integration weight cutoff        WCut        ... 1.0000e-14
Partially contracted basis set               ... off
Rotationally invariant grid construction     ... off
Angular grids for H and He will be reduced by one unit

Total number of grid points                  ...    28520
Total number of batches                      ...      449
Average number of points per batch           ...       63
Average number of grid points per atom       ...     4074

--------------------
COSX GRID GENERATION
--------------------

GRIDX 1
-------
General Integration Accuracy     IntAcc      ... 3.816
Radial Grid Type                 RadialGrid  ... OptM3 with GC (2021)
Angular Grid (max. ang.)         AngularGrid ... 1 (Lebedev-50)
Angular grid pruning method      GridPruning ... 4 (adaptive)
Weight generation scheme         WeightScheme... mBecke (2022)
Basis function cutoff            BFCut       ... 1.0000e-11
Integration weight cutoff        WCut        ... 1.0000e-14
Partially contracted basis set               ... on
Rotationally invariant grid construction     ... off
Angular grids for H and He will be reduced by one unit

Total number of grid points                  ...     3710
Total number of batches                      ...       34
Average number of points per batch           ...      109
Average number of grid points per atom       ...      530
UseSFitting                                  ... on

GRIDX 2
-------
General Integration Accuracy     IntAcc      ... 4.020
Radial Grid Type                 RadialGrid  ... OptM3 with GC (2021)
Angular Grid (max. ang.)         AngularGrid ... 2 (Lebedev-110)
Angular grid pruning method      GridPruning ... 4 (adaptive)
Weight generation scheme         WeightScheme... mBecke (2022)
Basis function cutoff            BFCut       ... 1.0000e-11
Integration weight cutoff        WCut        ... 1.0000e-14
Partially contracted basis set               ... on
Rotationally invariant grid construction     ... off
Angular grids for H and He will be reduced by one unit

Total number of grid points                  ...     7674
Total number of batches                      ...       64
Average number of points per batch           ...      119
Average number of grid points per atom       ...     1096
UseSFitting                                  ... on

GRIDX 3
-------
General Integration Accuracy     IntAcc      ... 4.338
Radial Grid Type                 RadialGrid  ... OptM3 with GC (2021)
Angular Grid (max. ang.)         AngularGrid ... 3 (Lebedev-194)
Angular grid pruning method      GridPruning ... 4 (adaptive)
Weight generation scheme         WeightScheme... mBecke (2022)
Basis function cutoff            BFCut       ... 1.0000e-11
Integration weight cutoff        WCut        ... 1.0000e-14
Partially contracted basis set               ... on
Rotationally invariant grid construction     ... off
Angular grids for H and He will be reduced by one unit

Total number of grid points                  ...    16850
Total number of batches                      ...      134
Average number of points per batch           ...      125
Average number of grid points per atom       ...     2407
UseSFitting                                  ... on
Initializing property integral containers    ... done (  0.0 sec)

SHARK setup successfully completed in   0.3 seconds

Maximum memory used throughout the entire STARTUP-calculation: 12.3 MB
Occupation numbers will be reassigned to an Aufbau configuration
             **** ENERGY FILE WAS UPDATED (molecule.en.tmp) ****
Finished Guess after   0.1 sec
Maximum memory used throughout the entire GUESS-calculation: 6.0 MB
----------------------------------------D-I-I-S--------------------------------------------
Iteration    Energy (Eh)           Delta-E    RMSDP     MaxDP     DIISErr   Damp  Time(sec)
-------------------------------------------------------------------------------------------
               ***  Starting incremental Fock matrix formation  ***
    1    -78.7317893473838808     0.00e+00  4.44e-04  4.60e-03  2.01e-02  0.700   0.3
    2    -78.7322429847837952    -4.54e-04  3.95e-04  4.15e-03  1.46e-02  0.700   0.2
                               ***Turning on AO-DIIS***
    3    -78.7325860410098528    -3.43e-04  3.08e-04  3.15e-03  9.90e-03  0.700   0.2
    4    -78.7328295440714498    -2.44e-04  7.73e-04  7.69e-03  7.05e-03  0.000   0.2
                              *** Initializing SOSCF ***
---------------------------------------S-O-S-C-F--------------------------------------
Iteration    Energy (Eh)           Delta-E    RMSDP     MaxDP     MaxGrad    Time(sec)
--------------------------------------------------------------------------------------
    5    -78.7334243797076567    -5.95e-04  6.28e-05  4.69e-04  7.41e-04     0.2
               *** Restarting incremental Fock matrix formation ***
    6    -78.7334239521078416     4.28e-07  5.28e-05  5.11e-04  2.26e-04     0.3
    7    -78.7334248580997382    -9.06e-07  2.41e-05  2.60e-04  7.49e-05     0.2
    8    -78.7334248730436741    -1.49e-08  9.91e-06  1.05e-04  1.04e-04     0.2
    9    -78.7334249458381237    -7.28e-08  2.95e-06  2.71e-05  9.23e-06     0.2
   10    -78.7334249458145905     2.35e-11  1.11e-06  1.45e-05  6.23e-06     0.2
                 **** Energy Check signals convergence ****

               *****************************************************
               *                     SUCCESS                       *
               *           SCF CONVERGED AFTER  10 CYCLES          *
               *****************************************************

Recomputing exchange energy using gridx3       ... done (    0.263 sec)
Old exchange energy                            :     -2.353800554 Eh
New exchange energy                            :     -2.353788167 Eh
Exchange energy change after final integration :      0.000012387 Eh
Total energy after final integration           :    -78.733412559 Eh
             **** ENERGY FILE WAS UPDATED (molecule.en.tmp) ****

----------------
TOTAL SCF ENERGY
----------------

Total Energy       :        -78.73341255889689 Eh           -2142.44508 eV

Components:
Nuclear Repulsion  :         37.25290458717168 Eh            1013.70307 eV
Electronic Energy  :       -115.98632953298626 Eh           -3156.14848 eV
One Electron Energy:       -173.38032225200101 Eh           -4717.91842 eV
Two Electron Energy:         57.39399271901475 Eh            1561.76994 eV

Virial components:
Potential Energy   :       -156.45601393688690 Eh           -4257.38458 eV
Kinetic Energy     :         77.72260137799000 Eh            2114.93950 eV
Virial Ratio       :          2.01300536990509

DFT components:
N(Alpha)           :        7.999997317527 electrons
N(Beta)            :        7.999997317527 electrons
N(Total)           :       15.999994635055 electrons
E(X)               :       -9.321821470559 Eh       
E(C)               :       -0.587274501872 Eh       
E(XC)              :       -9.909095972431 Eh       

---------------
SCF CONVERGENCE
---------------

  Last Energy change         ...   -2.3533e-11  Tolerance :   1.0000e-08
  Last MAX-Density change    ...    1.4550e-05  Tolerance :   1.0000e-07
  Last RMS-Density change    ...    1.1074e-06  Tolerance :   5.0000e-09
  Last DIIS Error            ...    7.4127e-04  Tolerance :   5.0000e-07
  Last Orbital Gradient      ...    6.2307e-06  Tolerance :   1.0000e-05
  Last Orbital Rotation      ...    6.5248e-06  Tolerance :   1.0000e-05


Total SCF time: 0 days 0 hours 0 min 2 sec 
Finished LeanSCF after   2.7 sec

Maximum memory used throughout the entire LEANSCF-calculation: 6.9 MB

------------------------------------------------------------------------------
                         ORCA PROPERTY INTEGRAL CALCULATIONS
------------------------------------------------------------------------------

GBWName                                   ... molecule.gbw
Number of atoms                           ...      7
Number of basis functions                 ...     53
Max core memory                           ...   1024 MB

Dipole integrals                          ... YES
Quadrupole integrals                      ...  NO
Linear momentum integrals                 ...  NO
Angular momentum integrals                ...  NO
Higher moments length integrals           ...  NO
Higher moments velocity integrals         ...  NO
Kinetic energy integrals                  ...  NO
GIAO right hand sides                     ...  NO
GIAO dipole derivative integrals          ...  NO
SOC integrals                             ...  NO
EPR diamagnetic integrals (GIAO)          ...  NO
EPR gauge integrals                       ...  NO
Field gradient integrals                  ...  NO (   0 nuclei)
Spin-dipole/Fermi contact integrals       ...  NO (   0 nuclei)
Contact density integrals                 ...  NO (   0 nuclei)
Nucleus-orbit integrals                   ...  NO (   0 nuclei)
Geometric perturbations                   ...  NO (   7 nuclei)

Choice of electric origin   ... Center of mass
Position of electric origin ... (  3.5465,  0.0708, -0.0804) 
Choice of magnetic origin   ... GIAO
Position of magnetic origin ... (  0.0000,  0.0000,  0.0000) 

Calculating integrals                     ... Electric Dipole (Length)     done (  0.0 sec)

Property integrals calculated in   0.0 sec

Maximum memory used throughout the entire PROPINT-calculation: 6.1 MB


-------------------------------------------------------------------------------
                          DFT DISPERSION CORRECTION                            
                                                                               
                                DFTD4 V3.4.0                                   
-------------------------------------------------------------------------------
-------------------------   ----------------
Dispersion correction           -0.002546737
-------------------------   ----------------


-------------------------   --------------------
FINAL SINGLE POINT ENERGY       -78.735959295932
-------------------------   --------------------

------------------------------------------------------------------------------
                         ORCA SCF GRADIENT CALCULATION
------------------------------------------------------------------------------

Nuc. rep. gradient        (SHARK) ... done (  0.0 sec)
HCore & Overlap gradient  (SHARK) ... done (  0.0 sec)
Split-RIJ-J gradient      (SHARK) ... done (  0.1 sec)
COSX-gradient                     ... done (  1.2 sec)
XC gradient                       ... done (  0.2 sec)
Dispersion correction             ... done (  0.0 sec)

-------------------
DISPERSION GRADIENT
-------------------

   1   C   :   -0.000033358    0.000005840   -0.000001303
   2   C   :    0.000039978   -0.000003777    0.000000432
   3   H   :   -0.000026196    0.000002591   -0.000009764
   4   H   :   -0.000026261    0.000005890    0.000008132
   5   H   :    0.000014584   -0.000009520   -0.000005351
   6   H   :    0.000014645   -0.000006359    0.000008760
   7   H   :    0.000016607    0.000005335   -0.000000905

Difference to translation invariance:
           :   -0.0000000000    0.0000000000   -0.0000000000

Difference to rotation invariance:
           :    0.0000000000    0.0000000000    0.0000000000

Norm of the Dispersion gradient    ...    0.0000728607
RMS gradient                       ...    0.0000158995
MAX gradient                       ...    0.0000399779

------------------
CARTESIAN GRADIENT
------------------

   1   C   :   -0.018262414    0.006087218   -0.001157979
   2   C   :    0.021139107    0.018096613   -0.004986921
   3   H   :    0.001870235   -0.003555069   -0.000053462
   4   H   :    0.002069100   -0.003103219    0.001400495
   5   H   :   -0.002775289   -0.005532153    0.005368173
   6   H   :   -0.002689196   -0.007513407   -0.001765569
   7   H   :   -0.001351544   -0.004479982    0.001195261

Difference to translation invariance:
           :   -0.0000000000   -0.0000000000   -0.0000000000

Difference to rotation invariance:
           :   -0.0000026488    0.0000026199   -0.0000000186

Norm of the Cartesian gradient     ...    0.0368834826
RMS gradient                       ...    0.0080486357
MAX gradient                       ...    0.0211391071

-------
TIMINGS
-------

Total SCF gradient time     ....        1.608 sec

Densities                   ....       0.000 sec  (  0.0%)
One electron gradient       ....       0.008 sec  (  0.5%)
RI-J Coulomb gradient       ....       0.077 sec  (  4.8%)
COSX gradient               ....       1.231 sec  ( 76.6%)
XC gradient                 ....       0.246 sec  ( 15.3%)

Maximum memory used throughout the entire SCFGRAD-calculation: 25.8 MB
------------------------------------------------------------------------------
                         ORCA GEOMETRY RELAXATION STEP
------------------------------------------------------------------------------

Reading the OPT-File                    .... done
Getting information on internals        .... done
Copying old internal coords+grads       .... done
Making the new internal coordinates     .... (2022 redundants) done
Validating the new internal coordinates .... (2022 redundants) done
Calculating the B-matrix                .... done
Calculating the G,G- and P matrices     .... done
Transforming gradient to internals      .... done
Projecting the internal gradient        .... done
Number of atoms                         ....   7
Number of internal coordinates          ....  20
Current Energy                          ....   -78.735959296 Eh
Current gradient norm                   ....     0.036883483 Eh/bohr
Maximum allowed component of the step   ....  0.300
Current trust radius                    ....  0.300
Updating the Hessian (BFGS)             .... done
Forming the augmented Hessian           .... done
Diagonalizing the augmented Hessian     .... done
Last element of RFO vector              ....  0.961383932
Lowest eigenvalues of augmented Hessian:
 -0.005084738  0.014465429  0.037405439  0.091434038  0.186325245
Length of the computed step             ....  0.286265147
The final length of the internal step   ....  0.286265147
Converting the step to Cartesian space:
 Initial RMS(Int)=    0.0640108328
Transforming coordinates:
 Iter   0:  RMS(Cart)=    0.0526408319 RMS(Int)=    0.0637131836
 Iter   5:  RMS(Cart)=    0.0000000528 RMS(Int)=    0.0000000616
done
Storing new coordinates                 .... done
The predicted energy change is          ....    -0.002750711
Previously predicted energy change      ....    -0.005916920
Actually observed energy change         ....    -0.005591133
Ratio of predicted to observed change   ....     0.944939677
New trust radius                        ....     0.450000000

                                .--------------------.
          ----------------------|Geometry convergence|-------------------------
          Item                value                   Tolerance       Converged
          ---------------------------------------------------------------------
          Energy change      -0.0055911326            0.0000010000      NO
          RMS gradient        0.0047656025            0.0000300000      NO
          MAX gradient        0.0139478760            0.0001000000      NO
          RMS step            0.0640108328            0.0006000000      NO
          MAX step            0.1638941473            0.0010000000      NO
          ........................................................
          Max(Bonds)      0.0488      Max(Angles)    4.38
          Max(Dihed)        9.39      Max(Improp)    0.00
          ---------------------------------------------------------------------

The optimization has not yet converged - more geometry cycles are needed


    ---------------------------------------------------------------------------
                         Redundant Internal Coordinates
                            (Angstroem and degrees)

        Definition                    Value    dE/dq     Step     New-Value
    ----------------------------------------------------------------------------
     1. B(C   1,C   0)                1.4439  0.013948 -0.0488    1.3950   
     2. B(H   2,C   0)                1.1018 -0.000591  0.0142    1.1160   
     3. B(H   3,C   0)                1.1018 -0.000598  0.0143    1.1161   
     4. B(H   4,C   1)                1.1052 -0.000932  0.0098    1.1149   
     5. B(H   5,C   1)                1.1051  0.000061  0.0085    1.1136   
     6. B(H   6,C   1)                1.1191 -0.004710  0.0270    1.1461   
     7. A(H   2,C   0,H   3)          118.49  0.003599   -2.35    116.14   
     8. A(C   1,C   0,H   3)          120.69 -0.002118   -0.18    120.51   
     9. A(C   1,C   0,H   2)          120.73 -0.001719   -0.28    120.46   
    10. A(H   4,C   1,H   5)          110.90 -0.003842    4.38    115.28   
    11. A(C   0,C   1,H   5)          111.47 -0.003412    1.88    113.35   
    12. A(C   0,C   1,H   6)          107.86  0.005358   -3.49    104.37   
    13. A(H   5,C   1,H   6)          108.07  0.003688   -2.18    105.89   
    14. A(H   4,C   1,H   6)          107.24  0.002540   -2.41    104.83   
    15. A(C   0,C   1,H   4)          111.11 -0.003570    1.68    112.79   
    16. D(H   4,C   1,C   0,H   3)    149.19 -0.007691    9.39    158.58   
    17. D(H   5,C   1,C   0,H   2)   -151.73  0.007211   -7.97   -159.71   
    18. D(H   5,C   1,C   0,H   3)     24.94  0.002454    1.52     26.46   
    19. D(H   6,C   1,C   0,H   2)     89.78  0.001351   -4.22     85.56   
    20. D(H   4,C   1,C   0,H   2)    -27.48 -0.002935   -0.11    -27.59   
[...]
M(i,i)=1/sqrt(m[i]) where m[i] is the mass of the displaced atom
Thus, these vectors are normalized but *not* orthogonal

                  0          1          2          3          4          5    
      0       0.000000   0.000000   0.000000   0.000000   0.000000   0.000000
      1       0.000000   0.000000   0.000000   0.000000   0.000000   0.000000
      2       0.000000   0.000000   0.000000   0.000000   0.000000   0.000000
      3       0.000000   0.000000   0.000000   0.000000   0.000000   0.000000
      4       0.000000   0.000000   0.000000   0.000000   0.000000   0.000000
      5       0.000000   0.000000   0.000000   0.000000   0.000000   0.000000
      6       0.000000   0.000000   0.000000   0.000000   0.000000   0.000000
      7       0.000000   0.000000   0.000000   0.000000   0.000000   0.000000
      8       0.000000   0.000000   0.000000   0.000000   0.000000   0.000000
      9       0.000000   0.000000   0.000000   0.000000   0.000000   0.000000
     10       0.000000   0.000000   0.000000   0.000000   0.000000   0.000000
     11       0.000000   0.000000   0.000000   0.000000   0.000000   0.000000
     12       0.000000   0.000000   0.000000   0.000000   0.000000   0.000000
     13       0.000000   0.000000   0.000000   0.000000   0.000000   0.000000
     14       0.000000   0.000000   0.000000   0.000000   0.000000   0.000000
     15       0.000000   0.000000   0.000000   0.000000   0.000000   0.000000
     16       0.000000   0.000000   0.000000   0.000000   0.000000   0.000000
     17       0.000000   0.000000   0.000000   0.000000   0.000000   0.000000
     18       0.000000   0.000000   0.000000   0.000000   0.000000   0.000000
     19       0.000000   0.000000   0.000000   0.000000   0.000000   0.000000
     20       0.000000   0.000000   0.000000   0.000000   0.000000   0.000000
                  6          7          8          9         10         11    
      0      -0.076817  -0.000081  -0.000085  -0.000024  -0.060054  -0.000321
      1      -0.090053   0.005677   0.007828  -0.000637  -0.049744   0.028863
      2       0.017926   0.028263   0.039231  -0.002884   0.009907   0.142825
      3       0.022936  -0.000050  -0.000070  -0.000019  -0.001782   0.000252
      4       0.115121   0.005722   0.007866   0.001209  -0.077459  -0.028791
      5      -0.023097   0.028236   0.038848   0.006431   0.015542  -0.142787
      6       0.028612   0.359217   0.197053   0.208544   0.107791   0.437815
      7       0.176692  -0.283208   0.148343   0.457705   0.471071  -0.201909
      8      -0.032275  -0.171400  -0.059065  -0.090324  -0.059464  -0.084370
      9       0.028921  -0.358266  -0.196675  -0.208450   0.108087  -0.437566
     10       0.175325   0.194597  -0.159476  -0.456329   0.458685   0.152098
     11      -0.038173  -0.268649   0.002055   0.092324  -0.127059  -0.156900
     12      -0.120888  -0.414704   0.019239  -0.230164   0.301229   0.415730
     13      -0.132110   0.078607   0.281516  -0.422663   0.382962  -0.197265
     14       0.023261  -0.245481  -0.085952   0.080599  -0.041409   0.166057
     15      -0.121173   0.415465  -0.019244   0.230634   0.300946  -0.415847
     16      -0.130692  -0.167258  -0.293358   0.422028   0.368471   0.246678
     17       0.029194  -0.194496   0.029411  -0.088181  -0.108449   0.075285
     18       0.826560  -0.000156   0.001468  -0.000047  -0.081236   0.000690
     19      -0.387920   0.041437  -0.164021  -0.007553  -0.165480  -0.000458
     20       0.079602   0.206810  -0.816810  -0.036693   0.033136  -0.000530
                 12         13         14         15         16         17    
      0      -0.012906   0.118236   0.065638  -0.202631   0.036556   0.040389
      1      -0.087959  -0.079017  -0.018573   0.102622   0.037526  -0.017138
      2       0.017792   0.016106   0.003887  -0.021079  -0.007464   0.003522
      3       0.061885  -0.136858   0.056110   0.208888   0.006767   0.037082
      4       0.064906   0.040394  -0.038287  -0.089791   0.051305  -0.019025
      5      -0.013104  -0.008386   0.007807   0.018516  -0.010289   0.003801
      6       0.155470   0.460166  -0.388256   0.280733  -0.038054  -0.234527
      7       0.377318  -0.089755   0.187304  -0.205011  -0.031774   0.018167
      8      -0.048756  -0.138589   0.248303  -0.311872   0.041342  -0.451524
      9       0.154758   0.459602  -0.387319   0.279760  -0.037869  -0.236240
     10       0.367519  -0.028817   0.076769  -0.068697  -0.045313   0.190984
     11      -0.100556   0.164236  -0.303024   0.368117  -0.026038   0.408631
     12      -0.195942  -0.336648  -0.348184  -0.284486  -0.006733  -0.222935
     13      -0.358051   0.282004   0.156706   0.058895  -0.046637   0.192138
     14       0.045191  -0.215071  -0.318899  -0.366090   0.044346   0.390978
     15      -0.196897  -0.337313  -0.349322  -0.285551  -0.006678  -0.220767
     16      -0.347020   0.342897   0.267174   0.195330  -0.060175   0.025982
     17       0.095986   0.088175   0.232245   0.313816  -0.022975  -0.434578
     18      -0.501006  -0.023920   0.022371  -0.065014  -0.426890  -0.008651
     19       0.234931  -0.046120  -0.010418  -0.133407  -0.874579   0.003632
     20      -0.047724   0.009264   0.002036   0.026571   0.174873  -0.000760
                 18         19         20    
      0      -0.047499   0.000133   0.000128
      1       0.020633  -0.014700  -0.014037
      2      -0.004207  -0.073193  -0.069896
      3       0.047832  -0.000083   0.000102
      4      -0.024024   0.014509  -0.014189
      5       0.004850   0.072379  -0.070751
      6       0.222166   0.225729   0.228996
      7      -0.016698  -0.017902  -0.018352
      8       0.433932   0.445987   0.438155
      9       0.223984  -0.227388  -0.230483
     10      -0.182987   0.188575   0.185831
     11      -0.393290   0.403552   0.395830
     12      -0.230051   0.222330  -0.228776
     13       0.198524  -0.190290   0.196494
     14       0.408731  -0.397524   0.398577
     15      -0.227891  -0.221263   0.227516
     16       0.025015   0.021872  -0.027159
     17      -0.453702  -0.442242   0.445310
     18       0.007826  -0.000003  -0.000003
     19       0.016562   0.000023  -0.000480
     20      -0.003329  -0.000067  -0.001973


-----------
IR SPECTRUM
-----------

 Mode   freq       eps      Int      T**2         TX        TY        TZ
       cm**-1   L/(mol*cm) km/mol    a.u.
----------------------------------------------------------------------------
  6:    498.78   0.027641  139.69  0.017294  (-0.118606  0.055645 -0.011407)
  7:    825.59   0.000088    0.44  0.000033  ( 0.000001 -0.001117 -0.005645)
  8:   1051.00   0.004447   22.47  0.001320  ( 0.000064 -0.007181 -0.035619)
  9:   1059.53   0.000009    0.05  0.000003  ( 0.000035 -0.000296 -0.001637)
 10:   1117.38   0.009167   46.33  0.002560  ( 0.021839  0.044756 -0.008952)
 11:   1220.25   0.000000    0.00  0.000000  ( 0.000001 -0.000008 -0.000031)
 12:   1239.54   0.000200    1.01  0.000050  ( 0.006432 -0.002946  0.000620)
 13:   1340.60   0.000967    4.89  0.000225  ( 0.006475  0.013274 -0.002654)
 14:   1439.11   0.004626   23.38  0.001003  (-0.028602  0.013329 -0.002739)
 15:   1569.24   0.002247   11.35  0.000447  (-0.009063 -0.018724  0.003749)
 16:   2122.79   0.009316   47.08  0.001369  (-0.015858 -0.032787  0.006560)
 17:   3113.98   0.007251   36.64  0.000727  (-0.024341  0.011364 -0.002234)
 18:   3116.14   0.000020    0.10  0.000002  ( 0.000050  0.001396 -0.000273)
 19:   3226.29   0.000001    0.00  0.000000  ( 0.000007  0.000046  0.000243)
 20:   3239.72   0.015193   76.78  0.001463  (-0.000020  0.007486  0.037515)

* The epsilon (eps) is given for a Dirac delta lineshape.
** The dipole moment derivative (T) already includes vibrational overlap.

The first frequency considered to be a vibration is 6
The total number of vibrations considered is 15


--------------------------
THERMOCHEMISTRY AT 298.15K
--------------------------

Temperature         ...   298.15 K
Pressure            ...     1.00 atm
Total Mass          ...    29.06 AMU
Quasi RRHO          ...     True
Cut-Off Frequency   ...     1.00 cm^-1

Throughout the following assumptions are being made:
  (1) The electronic state is orbitally nondegenerate
  (2) There are no thermally accessible electronically excited states
  (3) Hindered rotations indicated by low frequency modes are not
      treated as such but are treated as vibrations and this may
      cause some error
  (4) All equations used are the standard statistical mechanics
      equations for an ideal gas
  (5) All vibrations are strictly harmonic

freq.     498.78  E(vib)   ...       0.14 
freq.     825.59  E(vib)   ...       0.04 
freq.    1051.00  E(vib)   ...       0.02 
freq.    1059.53  E(vib)   ...       0.02 
freq.    1117.38  E(vib)   ...       0.01 
freq.    1220.25  E(vib)   ...       0.01 
freq.    1239.54  E(vib)   ...       0.01 
freq.    1340.60  E(vib)   ...       0.01 
freq.    1439.11  E(vib)   ...       0.00 
freq.    1569.24  E(vib)   ...       0.00 
freq.    2122.79  E(vib)   ...       0.00 
freq.    3113.98  E(vib)   ...       0.00 
freq.    3116.14  E(vib)   ...       0.00 
freq.    3226.29  E(vib)   ...       0.00 
freq.    3239.72  E(vib)   ...       0.00 

------------
INNER ENERGY
------------

The inner energy is: U= E(el) + E(ZPE) + E(vib) + E(rot) + E(trans)
    E(el)   - is the total energy from the electronic structure calculation
              = E(kin-el) + E(nuc-el) + E(el-el) + E(nuc-nuc)
    E(ZPE)  - the the zero temperature vibrational energy from the frequency calculation
    E(vib)  - the the finite temperature correction to E(ZPE) due to population
              of excited vibrational states
    E(rot)  - is the rotational thermal energy
    E(trans)- is the translational thermal energy

Summary of contributions to the inner energy U:
Electronic energy                ...    -78.74536788 Eh
Zero point energy                ...      0.05964224 Eh      37.43 kcal/mol
Thermal vibrational correction   ...      0.00042871 Eh       0.27 kcal/mol
Thermal rotational correction    ...      0.00141627 Eh       0.89 kcal/mol
Thermal translational correction ...      0.00141627 Eh       0.89 kcal/mol
-----------------------------------------------------------------------
Total thermal energy                    -78.68246439 Eh


Summary of corrections to the electronic energy:
(perhaps to be used in another calculation)
Total thermal correction                  0.00326125 Eh       2.05 kcal/mol
Non-thermal (ZPE) correction              0.05964224 Eh      37.43 kcal/mol
-----------------------------------------------------------------------
Total correction                          0.06290349 Eh      39.47 kcal/mol


--------
ENTHALPY
--------

The enthalpy is H = U + kB*T
                kB is Boltzmann's constant
Total thermal energy              ...    -78.68246439 Eh 
Thermal Enthalpy correction       ...      0.00094421 Eh       0.59 kcal/mol
-----------------------------------------------------------------------
Total Enthalpy                    ...    -78.68152018 Eh


Note: Rotational entropy computed according to Herzberg 
Infrared and Raman Spectra, Chapter V,1, Van Nostrand Reinhold, 1945 
Point Group:  Cs, Symmetry Number:   1  
Rotational constants in cm-1:     3.483096     0.882585     0.786301 

Vibrational entropy computed according to the QRRHO of S. Grimme
Chem.Eur.J. 2012 18 9955 using a reference frequency of 100.0 cm-1


-------
ENTROPY
-------

The entropy contributions are T*S = T*(S(el)+S(vib)+S(rot)+S(trans))
     S(el)   - electronic entropy
     S(vib)  - vibrational entropy
     S(rot)  - rotational entropy
     S(trans)- translational entropy
The entropies will be listed as multiplied by the temperature to get
units of energy

Electronic entropy                ...      0.00000000 Eh      0.00 kcal/mol
Vibrational entropy               ...      0.00056001 Eh      0.35 kcal/mol
Rotational entropy                ...      0.00909414 Eh      5.71 kcal/mol
Translational entropy             ...      0.01712110 Eh     10.74 kcal/mol
-----------------------------------------------------------------------
Final entropy term                ...      0.02677525 Eh     16.80 kcal/mol

In case the symmetry of your molecule has not been determined correctly
or in case you have a reason to use a different symmetry number we print 
out the resulting rotational entropy values for sn=1,12:

 non-linear molecules -----------------------------------
|  sn= 1 | S(rot)=       0.00909414 Eh      5.71 kcal/mol|
|  sn= 2 | S(rot)=       0.00843968 Eh      5.30 kcal/mol|
|  sn= 3 | S(rot)=       0.00805685 Eh      5.06 kcal/mol|
|  sn= 4 | S(rot)=       0.00778523 Eh      4.89 kcal/mol|
|  sn= 5 | S(rot)=       0.00757454 Eh      4.75 kcal/mol|
|  sn= 6 | S(rot)=       0.00740240 Eh      4.65 kcal/mol|
|  sn= 7 | S(rot)=       0.00725685 Eh      4.55 kcal/mol|
|  sn= 8 | S(rot)=       0.00713077 Eh      4.47 kcal/mol|
|  sn= 9 | S(rot)=       0.00701956 Eh      4.40 kcal/mol|
|  sn=10 | S(rot)=       0.00692008 Eh      4.34 kcal/mol|
|  sn=11 | S(rot)=       0.00683009 Eh      4.29 kcal/mol|
|  sn=12 | S(rot)=       0.00674794 Eh      4.23 kcal/mol|
 linear molecules ---------------------------------------
|  Dinfh | S(rot)=       0.00555280 Eh      3.48 kcal/mol|
|  Cinfv | S(rot)=       0.00620726 Eh      3.90 kcal/mol|
 --------------------------------------------------------


-------------------
GIBBS FREE ENERGY
-------------------

The Gibbs free energy is G = H - T*S

Total enthalpy                    ...    -78.68152018 Eh 
Total entropy correction          ...     -0.02677525 Eh    -16.80 kcal/mol
-----------------------------------------------------------------------
Final Gibbs free energy         ...    -78.70829543 Eh

For completeness - the Gibbs free energy minus the electronic energy
G-E(el)                           ...      0.03707245 Eh     23.26 kcal/mol


Maximum memory used throughout the entire PROP-calculation: 25.9 MB

--------------------------------
SUGGESTED CITATIONS FOR THIS RUN
--------------------------------

Below you find a list of papers that are relevant to this ORCA run
We neither can nor want to force you to cite these papers, but we appreciate if you do
You receive ORCA, which is the product of decades of hard work by many enthusiastic individuals, for free
The only thing we kindly ask in return is that you cite our papers,
We deeply appreciate it, if you show your appreciation for ORCA by not just citing the generic ORCA reference.

Please note that relegating all ORCA citations to the supporting information does *not* help us.
SI sections are not indexed - citations you put there will not count into any citation statistics
But we need these citations in order to attract the funding resources that allow us to do what we are doing

Therefore, if you are a happy ORCA user, please consider citing a few of the papers listed below in the main body of your paper

In addition to the list printed below, the program has created the file molecule.bibtex that contains the list in bibtex format
You can import this file easily into all common literature databanks and citation aid programs


List of essential papers. We consider these as the minimum necessary citations

  1. Neese,F.
     Software update: the ORCA program system, version 5.0
     WIRES Comput. Molec. Sci., 2022 12(1)e1606
     doi.org/10.1002/wcms.1606

List of papers to cite with high priority. The work reported in these papers was absolutely
necessary for this run to complete.
Our perspective: the developers of density functionals and basis sets usually get cited in chemistry papers
Good! But without the algorithms to do something with them, the functionals or basis sets would not do anything.
Hence, in our opinion, the algorithm design and method developments papers are equally worthy of getting cited

  1. Neese,F.
     An improvement of the resolution of the identity approximation for the formation of the Coulomb matrix
     J. Comp. Chem., 2003 24(14)1740-1747
     doi.org/10.1002/jcc.10318
  2. Neese,F.; Wennmohs,F.; Hansen,A.; Becker,U.
     Efficient, approximate and parallel Hartree-Fock and hybrid DFT calculations. A 'chain-of-spheres' algorithm for the Hartree-Fock exchange
     Chem. Phys., 2009 356(1-3)98-109
     doi.org/10.1016/j.chemphys.2008.10.036
  3. Bykov,D.; Petrenko,T.; Izsak,R.; Kossmann,S.; Becker,U.; Valeev,E.; Neese,F.
     Efficient implementation of the analytic second derivatives of Hartree-Fock and hybrid DFT energies: a detailed analysis of different approximations
     Molec. Phys., 2015 113 1961-1977
     doi.org/10.1080/00268976.2015.1025114
  4. Helmich-Paris,B.; de Souza,B.; Neese,F.; Izsák,R.
     An improved chain of spheres for exchange algorithm
     J. Chem. Phys., 2021 155 104109
     doi.org/doi: 10.1063/5.0058766.
  5. Neese,F.
     The SHARK Integral Generation and Digestion System
     J. Comp. Chem., 2022  1-16
     doi.org/10.1002/jcc.26942
  6. Caldeweyher,E.; Bannwarth,C.; Grimme,S.
     Extension of the D3 dispersion coefficient model
     J. Chem. Phys., 2017 147 034112-XXXX
     doi.org/10.1063/1.4993215
  7. Caldeweyher,E.; Ehlert,S.; Hansen,A.; Neugebauer,H.; Spicher,S.; Bannwarth,C.; Grimme,S.
     A generally applicable atomic-charge dependent London dispersion correction
     J. Chem. Phys., 2019 150 154122-XXXX
     doi.org/10.1063/1.5090222
  8. Caldeweyher,E.; Mewes,J.; Ehlert,S.; Grimme,S.
     Extension and evaluation of the D4 London-dispersion model for periodic systems
     Phys. Chem. Chem. Phys., 2020 22(16)8499-8512
     doi.org/10.1039/D0CP00502A

List of suggested additional citations. These are papers that are important in the 'surrounding' of 
of this run, or papers that preceded the highly important papers. If you like your results we are grateful for a citation.

  1. Izsak,R.; Neese,F.
     An overlap fitted chain of spheres exchange method
     J. Chem. Phys., 2011 135 144105
     doi.org/10.1063/1.3646921
  2. Izsak,R.; Hansen,A.; Neese,F.
     The resolution of identity and chain of spheres approximations for the LPNO-CCSD singles Fock term
     Molec. Phys., 2012 110 2413-2417
     doi.org/10.1080/00268976.2012.687466
  3. Neese,F.
     The ORCA program system
     WIRES Comput. Molec. Sci., 2012 2(1)73-78
     doi.org/10.1002/wcms.81
  4. Izsak,R.; Neese,F.; Klopper,W.
     Robust fitting techniques in the chain of spheres approximation to the Fock exchange: The role of the complementary space
     J. Chem. Phys., 2013 139 
     doi.org/10.1063/1.4819264
  5. Neese,F.
     Software update: the ORCA program system, version 4.0
     WIRES Comput. Molec. Sci., 2018 8(1)1-6
     doi.org/10.1002/wcms.1327
  6. Neese,F.; Wennmohs,F.; Becker,U.; Riplinger,C.
     The ORCA quantum chemistry program package
     J. Chem. Phys., 2020 152 Art. No. L224108
     doi.org/10.1063/5.0004608

List of optional additional citations

  1. Neese,F.
     Approximate second-order SCF convergence for spin unrestricted wavefunctions
     Chem. Phys. Lett., 2000 325(1-3)93-98
     doi.org/10.1016/s0009-2614(00)00662-x

Timings for individual modules:

Sum of individual times          ...      103.039 sec (=   1.717 min)
Startup calculation              ...        5.682 sec (=   0.095 min)   5.5 %
SCF iterations                   ...       45.588 sec (=   0.760 min)  44.2 %
Property integrals               ...        4.515 sec (=   0.075 min)   4.4 %
SCF Response                     ...        3.213 sec (=   0.054 min)   3.1 %
Property calculations            ...       13.448 sec (=   0.224 min)  13.1 %
SCF Gradient evaluation          ...       30.386 sec (=   0.506 min)  29.5 %
Geometry relaxation              ...        0.207 sec (=   0.003 min)   0.2 %
                             ****ORCA TERMINATED NORMALLY****
TOTAL RUN TIME: 0 days 0 hours 1 minutes 47 seconds 892 msec
