
                                 *****************
                                 * O   R   C   A *
                                 *****************

                                            #,                                       
                                            ###                                      
                                            ####                                     
                                            #####                                    
                                            ######                                   
                                           ########,                                 
                                     ,,################,,,,,                         
                               ,,#################################,,                 
                          ,,##########################################,,             
                       ,#########################################, ''#####,          
                    ,#############################################,,   '####,        
                  ,##################################################,,,,####,       
                ,###########''''           ''''###############################       
              ,#####''   ,,,,##########,,,,          '''####'''          '####       
            ,##' ,,,,###########################,,,                        '##       
           ' ,,###''''                  '''############,,,                           
         ,,##''                                '''############,,,,        ,,,,,,###''
      ,#''                                            '''#######################'''  
     '                                                          ''''####''''         
             ,#######,   #######,   ,#######,      ##                                
            ,#'     '#,  ##    ##  ,#'     '#,    #''#        ,####,   ,####,        
            ##       ##  ##   ,#'  ##            #'  '#       #'       #'  '#        
            ##       ##  #######   ##           ,######,      #####,   #    #        
            '#,     ,#'  ##    ##  '#,     ,#' ,#      #,     #,   #   #,  ,#        
             '#######'   ##     ##  '#######'  #'      '#     '####' # '####'        



                #########################################################
                #                        -***-                          #
                #          Department of theory and spectroscopy        #
                #                                                       #
                #                      Frank Neese                      #
                #                                                       #
                #     Directorship, Architecture, Infrastructure        #
                #                    SHARK, DRIVERS                     #
                #        Core code/Algorithms in most modules           #
                #                                                       #
                #        Max Planck Institute fuer Kohlenforschung      #
                #                Kaiser Wilhelm Platz 1                 #
                #                 D-45470 Muelheim/Ruhr                 #
                #                      Germany                          #
                #                                                       #
                #                  All rights reserved                  #
                #                        -***-                          #
                #########################################################


                         Program Version 6.0.0  -   RELEASE  -


 With contributions from (in alphabetic order):
   Daniel Aravena         : Magnetic Suceptibility
   Michael Atanasov       : Ab Initio Ligand Field Theory (pilot matlab implementation)
   Alexander A. Auer      : GIAO ZORA, VPT2 properties, NMR spectrum
   Ute Becker             : All parallelization in ORCA, NUMFREQ, NUMCALC
   Giovanni Bistoni       : ED, misc. LED, open-shell LED, HFLD
   Martin Brehm           : Molecular dynamics
   Dmytro Bykov           : pre 5.0 version of the SCF Hessian
   Marcos Casanova-Páez   : Triplet and SCS-CIS(D). UHF-(DLPNO)-IP/EA/STEOM-CCSD. UHF-CVS-IP/STEOM-CCSD
   Vijay G. Chilkuri      : MRCI spin determinant printing, contributions to CSF-ICE
   Pauline Colinet        : FMM embedding
   Dipayan Datta          : RHF DLPNO-CCSD density
   Achintya Kumar Dutta   : EOM-CC, STEOM-CC
   Nicolas Foglia         : Exact transition moments, OPA infrastructure, MCD improvements
   Dmitry Ganyushin       : Spin-Orbit,Spin-Spin,Magnetic field MRCI
   Miquel Garcia          : C-PCM and meta-GGA Hessian, CCSD/C-PCM, Gaussian charge scheme
   Tiago L. C. Gouveia    : GS-ROHF, GS-ROCIS
   Yang Guo               : DLPNO-NEVPT2, F12-NEVPT2, CIM, IAO-localization
   Andreas Hansen         : Spin unrestricted coupled pair/coupled cluster methods
   Ingolf Harden          : AUTO-CI MPn and infrastructure 
   Benjamin Helmich-Paris : MC-RPA, TRAH-(SCF,CASSCF), AVAS, COSX integrals, SCF dyn. polar.
   Lee Huntington         : MR-EOM, pCC
   Robert Izsak           : Overlap fitted RIJCOSX, COSX-SCS-MP3, EOM
   Riya Kayal             : Wick's Theorem for AUTO-CI, AUTO-CI UHF-CCSDT
   Emily Kempfer          : AUTO-CI, RHF CISDT and CCSDT
   Christian Kollmar      : KDIIS, OOCD, Brueckner-CCSD(T), CCSD density, CASPT2, CASPT2-K, improved NEVPT2
   Axel Koslowski         : Symmetry handling
   Simone Kossmann        : Meta GGA functionals, TD-DFT gradient, OOMP2, (MP2 Hessian; deprecated post 5.0)
   Lucas Lang             : DCDCAS
   Marvin Lechner         : AUTO-CI (C++ implementation), FIC-MRCC
   Spencer Leger          : CASSCF response
   Dagmar Lenk            : GEPOL surface, SMD, ORCA-2-JSON
   Dimitrios Liakos       : Extrapolation schemes; Compound Job, initial MDCI parallelization
   Dimitrios Manganas     : Further ROCIS development; embedding schemes. LFT, Crystal Embedding
   Dimitrios Pantazis     : SARC Basis sets
   Anastasios Papadopoulos: AUTO-CI, single reference methods and gradients
   Taras Petrenko         : pre 6.0 DFT Hessian and TD-DFT gradient, (ASA, deprecated), ECA, 1-Electron XAS/XES, NRVS
   Peter Pinski           : DLPNO-MP2, DLPNO-MP2 Gradient
   Christoph Reimann      : Effective Core Potentials
   Marius Retegan         : Local ZFS, SOC
   Christoph Riplinger    : Optimizer, TS searches, QM/MM, DLPNO-CCSD(T), (RO)-DLPNO pert. Triples
   Michael Roemelt        : Original ROCIS implementation
   Masaaki Saitow         : Open-shell DLPNO-CCSD energy and density
   Barbara Sandhoefer     : DKH picture change effects
   Kantharuban Sivalingam : CASSCF convergence/infrastructure, NEVPT2 and variants, FIC-MRCI
   Bernardo de Souza      : ESD, SOC TD-DFT
   Georgi Stoychev        : AutoAux, RI-MP2 NMR, DLPNO-MP2 response, X2C
   Van Anh Tran           : RI-MP2 g-tensors
   Willem Van den Heuvel  : Paramagnetic NMR
   Zikuan Wang            : NOTCH, Electric field optimization 
   Frank Wennmohs         : Technical directorship and infrastructure
   Hang Xu                : AUTO-CI-Response properties 


 We gratefully acknowledge several colleagues who have allowed us to
 interface, adapt or use parts of their codes:
   Stefan Grimme, W. Hujo, H. Kruse, P. Pracht,  : VdW corrections, initial TS optimization,
                  C. Bannwarth, S. Ehlert,         DFT functionals, gCP, sTDA/sTD-DF
                  L. Wittmann, M. Mueller
   Ed Valeev, F. Pavosevic, A. Kumar             : LibInt (2-el integral package), F12 methods
   Garnet Chan, S. Sharma, J. Yang, R. Olivares  : DMRG
   Ulf Ekstrom                                   : XCFun DFT Library
   Mihaly Kallay                                 : mrcc  (arbitrary order and MRCC methods)
   Frank Weinhold                                : gennbo (NPA and NBO analysis)
   Simon Mueller                                 : openCOSMO-RS
   Christopher J. Cramer and Donald G. Truhlar   : smd solvation model
   Lars Goerigk                                  : TD-DFT with DH, B97 family of functionals
   V. Asgeirsson, H. Jonsson                     : NEB implementation
   FAccTs GmbH                                   : IRC, NEB, NEB-TS, DLPNO-Multilevel, CI-OPT
                                                   MM, QMMM, 2- and 3-layer-ONIOM, Crystal-QMMM,
                                                   LR-CPCM, SF, NACMEs, symmetry and pop. for TD-DFT,
                                                   nearIR, NL-DFT gradient (VV10), updates on ESD,
                                                   ML-optimized integration grids, MBIS, APM,
                                                   GOAT, DOCKER, SOLVATOR, interface openCOSMO-RS
   S Lehtola, MJT Oliveira, MAL Marques          : LibXC Library
   Liviu Ungur et al                             : ANISO software


 Your calculation uses the libint2 library for the computation of 2-el integrals
 For citations please refer to: http://libint.valeyev.net

 Your ORCA version has been built with support for libXC version: 6.2.2
 For citations please refer to: https://libxc.gitlab.io

 This ORCA versions uses:
   CBLAS   interface :  Fast vector & matrix operations
   LAPACKE interface :  Fast linear algebra routines
   SCALAPACK package :  Parallel linear algebra routines
   Shared memory     :  Shared parallel matrices
   BLAS/LAPACK       :  OpenBLAS 0.3.27  USE64BITINT DYNAMIC_ARCH NO_AFFINITY Cooperlake SINGLE_THREADED
        Core in use  :  Cooperlake
   Copyright (c) 2011-2014, The OpenBLAS Project


Your calculation utilizes the atom-pairwise dispersion correction
based on EEQ partial charges (D4)


================================================================================

----- Orbital basis set information -----
Your calculation utilizes the basis: def2-SVP
   F. Weigend and R. Ahlrichs, Phys. Chem. Chem. Phys. 7, 3297 (2005).

----- AuxJ basis set information -----
Your calculation utilizes the auxiliary basis: def2/J
   F. Weigend, Phys. Chem. Chem. Phys. 8, 1057 (2006).

================================================================================
                                        WARNINGS
                       Please study these warnings very carefully!
================================================================================


WARNING: Geometry Optimization
  ===> : Switching off AutoStart
         For restart on a previous wavefunction, please use MOREAD

================================================================================
                                       INPUT FILE
================================================================================
NAME = molecule.inp
|  1> # ORCA Input File generated by Ophysia
|  2> ! B3LYP D4 def2-SVP OPT RIJCOSX FREQ def2/J TIGHTOPT
|  3> * xyz 0 1
|  4> C          1.05741       -0.07822       -0.04815
|  5> O          2.47314       -0.06815       -0.04453
|  6> H          0.69590       -0.86208        0.62193
|  7> H          0.69590       -0.25678       -1.06381
|  8> H          0.69433        0.89165        0.30010
|  9> H          2.76605       -0.94074       -0.35786
| 10> **                         ****END OF INPUT****
================================================================================

                       *****************************
                       * Geometry Optimization Run *
                       *****************************

Geometry optimization settings:
Update method            Update   .... BFGS
Choice of coordinates    CoordSys .... (2022) Redundant Internals
Initial Hessian          InHess   .... Almloef's Model
Max. no of cycles        MaxIter  .... 50

Convergence Tolerances:
Energy Change            TolE     ....  1.0000e-06 Eh
Max. Gradient            TolMAXG  ....  1.0000e-04 Eh/bohr
RMS Gradient             TolRMSG  ....  3.0000e-05 Eh/bohr
Max. Displacement        TolMAXD  ....  1.0000e-03 bohr
RMS Displacement         TolRMSD  ....  6.0000e-04 bohr
Strict Convergence                .... False

------------------------------------------------------------------------------
                        ORCA OPTIMIZATION COORDINATE SETUP
------------------------------------------------------------------------------

The optimization will be done in redundant internal coordinates (2022)
Making redundant internal coordinates   ...  (2022 redundants) done
Evaluating the initial hessian          ...  (Almloef) done
Evaluating the coordinates              ...  done
Calculating the B-matrix                .... done
Calculating the G-matrix                .... done
Diagonalizing the G-matrix              .... done
The first mode is                       ....    3
The number of degrees of freedom        ....   12

    -----------------------------------------------------------------
                    Redundant Internal Coordinates


    -----------------------------------------------------------------
         Definition                    Initial Value    Approx d2E/dq
    -----------------------------------------------------------------
      1. B(O   1,C   0)                  1.4158         0.509050   
      2. B(H   2,C   0)                  1.0928         0.356462   
      3. B(H   3,C   0)                  1.0928         0.356459   
      4. B(H   4,C   0)                  1.0926         0.356690   
      5. B(H   5,O   1)                  0.9723         0.496968   
      6. A(O   1,C   0,H   3)          109.5330         0.338738   
      7. A(O   1,C   0,H   2)          109.5328         0.338739   
      8. A(O   1,C   0,H   4)          108.9761         0.338775   
      9. A(H   2,C   0,H   4)          109.3516         0.289943   
     10. A(H   3,C   0,H   4)          109.3514         0.289942   
     11. A(H   2,C   0,H   3)          110.0766         0.289913   
     12. A(C   0,O   1,H   5)          107.0997         0.355109   
     13. D(H   5,O   1,C   0,H   3)    -60.4093         0.020511   
     14. D(H   5,O   1,C   0,H   4)   -179.9994         0.020511   
     15. D(H   5,O   1,C   0,H   2)     60.4104         0.020511   
    -----------------------------------------------------------------

Number of atoms                         .... 6
Number of degrees of freedom            .... 15


         *************************************************************
         *                GEOMETRY OPTIMIZATION CYCLE   1            *
         *************************************************************
---------------------------------
CARTESIAN COORDINATES (ANGSTROEM)
---------------------------------
  C      1.057410   -0.078220   -0.048150
  O      2.473140   -0.068150   -0.044530
  H      0.695900   -0.862080    0.621930
  H      0.695900   -0.256780   -1.063810
  H      0.694330    0.891650    0.300100
  H      2.766050   -0.940740   -0.357860

----------------------------
CARTESIAN COORDINATES (A.U.)
----------------------------
  NO LB      ZA    FRAG     MASS         X           Y           Z
   0 C     6.0000    0    12.011    1.998215   -0.147814   -0.090990
   1 O     8.0000    0    15.999    4.673557   -0.128785   -0.084150
   2 H     1.0000    0     1.008    1.315060   -1.629095    1.175277
   3 H     1.0000    0     1.008    1.315060   -0.485244   -2.010310
   4 H     1.0000    0     1.008    1.312094    1.684974    0.567107
   5 H     1.0000    0     1.008    5.227077   -1.777741   -0.676257

--------------------------------
INTERNAL COORDINATES (ANGSTROEM)
--------------------------------
 C      0   0   0     0.000000000000     0.00000000     0.00000000
 O      1   0   0     1.415770441209     0.00000000     0.00000000
 H      1   2   0     1.092764012081   109.53279851     0.00000000
 H      1   2   3     1.092766392831   109.53302960   239.18029242
 H      1   2   3     1.092590026405   108.97605532   119.59020783
 H      2   1   3     0.972309243554   107.09974403    60.41037868

---------------------------
INTERNAL COORDINATES (A.U.)
---------------------------
 C      0   0   0     0.000000000000     0.00000000     0.00000000
 O      1   0   0     2.675418402385     0.00000000     0.00000000
 H      1   2   0     2.065024711839   109.53279851     0.00000000
 H      1   2   3     2.065029210803   109.53302960   239.18029242
 H      1   2   3     2.064695926560   108.97605532   119.59020783
 H      2   1   3     1.837398187797   107.09974403    60.41037868

---------------------
BASIS SET INFORMATION
---------------------
There are 3 groups of distinct atoms

 Group   1 Type C   : 7s4p1d contracted to 3s2p1d pattern {511/31/1}
 Group   2 Type O   : 7s4p1d contracted to 3s2p1d pattern {511/31/1}
 Group   3 Type H   : 4s1p contracted to 2s1p pattern {31/1}

Atom   0C    basis set group =>   1
Atom   1O    basis set group =>   2
Atom   2H    basis set group =>   3
Atom   3H    basis set group =>   3
Atom   4H    basis set group =>   3
Atom   5H    basis set group =>   3
---------------------------------
AUXILIARY/J BASIS SET INFORMATION
---------------------------------
There are 3 groups of distinct atoms

 Group   1 Type C   : 12s5p4d2f1g contracted to 6s4p3d1f1g pattern {711111/2111/211/2/1}
 Group   2 Type O   : 12s5p4d2f1g contracted to 6s4p3d1f1g pattern {711111/2111/211/2/1}
 Group   3 Type H   : 5s2p1d contracted to 3s1p1d pattern {311/2/1}

Atom   0C    basis set group =>   1
Atom   1O    basis set group =>   2
Atom   2H    basis set group =>   3
Atom   3H    basis set group =>   3
Atom   4H    basis set group =>   3
Atom   5H    basis set group =>   3
------------------------------------------------------------------------------
                             ORCA STARTUP CALCULATIONS
                           -- RI-GTO INTEGRALS CHOSEN --
------------------------------------------------------------------------------
------------------------------------------------------------------------------
                   ___                                                        
                  /   \      - P O W E R E D   B Y -                         
                 /     \                                                     
                 |  |  |   _    _      __       _____    __    __             
                 |  |  |  | |  | |    /  \     |  _  \  |  |  /  |          
                  \  \/   | |  | |   /    \    | | | |  |  | /  /          
                 / \  \   | |__| |  /  /\  \   | |_| |  |  |/  /          
                |  |  |   |  __  | /  /__\  \  |    /   |      \           
                |  |  |   | |  | | |   __   |  |    \   |  |\   \          
                \     /   | |  | | |  |  |  |  | |\  \  |  | \   \       
                 \___/    |_|  |_| |__|  |__|  |_| \__\ |__|  \__/        
                                                                              
                      - O R C A' S   B I G   F R I E N D -                    
                                      &                                       
                       - I N T E G R A L  F E E D E R -                       
                                                                              
 v1 FN, 2020, v2 2021, v3 2022-2024                                           
------------------------------------------------------------------------------


----------------------
SHARK INTEGRAL PACKAGE
----------------------

Number of atoms                             ...      6
Number of basis functions                   ...     48
Number of shells                            ...     24
Maximum angular momentum                    ...      2
Integral batch strategy                     ... SHARK/LIBINT Hybrid
RI-J (if used) integral strategy            ... SPLIT-RIJ (Revised 2003 algorithm where possible)
Printlevel                                  ...      1
Contraction scheme used                     ... SEGMENTED contraction
Prescreening option                         ... SCHWARTZ
   Thresh                                   ... 2.500e-11
   Tcut                                     ... 2.500e-12
   Tpresel                                  ... 2.500e-12 
Coulomb Range Separation                    ... NOT USED
Exchange Range Separation                   ... NOT USED
Multipole approximations                    ... NOT USED
Finite Nucleus Model                        ... NOT USED
CABS basis                                  ... NOT available
Auxiliary Coulomb fitting basis             ... AVAILABLE
   # of basis functions in Aux-J            ...    142
   # of shells in Aux-J                     ...     50
   Maximum angular momentum in Aux-J        ...      4
Auxiliary J/K fitting basis                 ... NOT available
Auxiliary Correlation fitting basis         ... NOT available
Auxiliary 'external' fitting basis          ... NOT available

Checking pre-screening integrals            ... done (  0.0 sec) Dimension = 24
Check shell pair data                       ... done (  0.0 sec)
Shell pair information
Shell pair cut-off parameter TPreSel        ...   2.5e-12
Total number of shell pairs                 ...       300
Shell pairs after pre-screening             ...       300
Total number of primitive shell pairs       ...      1028
Primitive shell pairs kept                  ...       941
          la=0 lb=0:    105 shell pairs
          la=1 lb=0:    112 shell pairs
          la=1 lb=1:     36 shell pairs
          la=2 lb=0:     28 shell pairs
          la=2 lb=1:     16 shell pairs
          la=2 lb=2:      3 shell pairs

Calculating one electron integrals          ... done (  0.0 sec)
Calculating RI/J V-Matrix + Cholesky decomp.... done (  0.0 sec)
Calculating Nuclear repulsion               ... done (  0.0 sec) ENN=     40.366600394392 Eh

Diagonalization of the overlap matrix:
Smallest eigenvalue                        ... 1.137e-02
Time for diagonalization                   ...    0.002 sec
Threshold for overlap eigenvalues          ... 1.000e-07
Number of eigenvalues below threshold      ... 0
Time for construction of square roots      ...    0.013 sec
Total time needed                          ...    0.019 sec

-------------------
DFT GRID GENERATION
-------------------

General Integration Accuracy     IntAcc      ... 4.388
Radial Grid Type                 RadialGrid  ... OptM3 with GC (2021)
Angular Grid (max. ang.)         AngularGrid ... 4 (Lebedev-302)
Angular grid pruning method      GridPruning ... 4 (adaptive)
Weight generation scheme         WeightScheme... mBecke (2022)
Basis function cutoff            BFCut       ... 1.0000e-11
Integration weight cutoff        WCut        ... 1.0000e-14
Partially contracted basis set               ... off
Rotationally invariant grid construction     ... off
Angular grids for H and He will be reduced by one unit

Total number of grid points                  ...    25304
Total number of batches                      ...      398
Average number of points per batch           ...       63
Average number of grid points per atom       ...     4217

--------------------
COSX GRID GENERATION
--------------------

GRIDX 1
-------
General Integration Accuracy     IntAcc      ... 3.816
Radial Grid Type                 RadialGrid  ... OptM3 with GC (2021)
Angular Grid (max. ang.)         AngularGrid ... 1 (Lebedev-50)
Angular grid pruning method      GridPruning ... 4 (adaptive)
Weight generation scheme         WeightScheme... mBecke (2022)
Basis function cutoff            BFCut       ... 1.0000e-11
Integration weight cutoff        WCut        ... 1.0000e-14
Partially contracted basis set               ... on
Rotationally invariant grid construction     ... off
Angular grids for H and He will be reduced by one unit

Total number of grid points                  ...     3276
Total number of batches                      ...       28
Average number of points per batch           ...      117
Average number of grid points per atom       ...      546
UseSFitting                                  ... on

GRIDX 2
-------
General Integration Accuracy     IntAcc      ... 4.020
Radial Grid Type                 RadialGrid  ... OptM3 with GC (2021)
Angular Grid (max. ang.)         AngularGrid ... 2 (Lebedev-110)
Angular grid pruning method      GridPruning ... 4 (adaptive)
Weight generation scheme         WeightScheme... mBecke (2022)
Basis function cutoff            BFCut       ... 1.0000e-11
Integration weight cutoff        WCut        ... 1.0000e-14
Partially contracted basis set               ... on
Rotationally invariant grid construction     ... off
Angular grids for H and He will be reduced by one unit

Total number of grid points                  ...     6905
Total number of batches                      ...       57
Average number of points per batch           ...      121
Average number of grid points per atom       ...     1151
UseSFitting                                  ... on

GRIDX 3
-------
General Integration Accuracy     IntAcc      ... 4.338
Radial Grid Type                 RadialGrid  ... OptM3 with GC (2021)
Angular Grid (max. ang.)         AngularGrid ... 3 (Lebedev-194)
Angular grid pruning method      GridPruning ... 4 (adaptive)
Weight generation scheme         WeightScheme... mBecke (2022)
Basis function cutoff            BFCut       ... 1.0000e-11
Integration weight cutoff        WCut        ... 1.0000e-14
Partially contracted basis set               ... on
Rotationally invariant grid construction     ... off
Angular grids for H and He will be reduced by one unit

Total number of grid points                  ...    15243
Total number of batches                      ...      121
Average number of points per batch           ...      125
Average number of grid points per atom       ...     2540
UseSFitting                                  ... on
Initializing property integral containers    ... done (  0.0 sec)

SHARK setup successfully completed in   0.3 seconds

Maximum memory used throughout the entire STARTUP-calculation: 11.5 MB
-------------------------------------------------------------------------------
                                 ORCA GUESS
                   Start orbitals & Density for SCF / CASSCF
-------------------------------------------------------------------------------

------------
SCF SETTINGS
------------
Hamiltonian:
 Density Functional     Method          .... DFT(GTOs)
 Exchange Functional    Exchange        .... B88
   X-Alpha parameter    XAlpha          ....  0.666667
   Becke's b parameter  XBeta           ....  0.004200
 Correlation Functional Correlation     .... LYP
 LDA part of GGA corr.  LDAOpt          .... VWN-5
 Gradients option       PostSCFGGA      .... off
 Hybrid DFT is turned on
   Fraction HF Exchange ScalHFX         ....  0.200000
   Scaling of DF-GGA-X  ScalDFX         ....  0.720000
   Scaling of DF-GGA-C  ScalDFC         ....  0.810000
   Scaling of DF-LDA-C  ScalLDAC        ....  1.000000
   Perturbative correction              ....  0.000000
   NL short-range parameter             ....  4.800000
 RI-approximation to the Coulomb term is turned on
   Number of AuxJ basis functions       .... 142
   RIJ-COSX (HFX calculated with COS-X)).... on


General Settings:
 Integral files         IntName         .... molecule
 Hartree-Fock type      HFTyp           .... RHF
 Total Charge           Charge          ....    0
 Multiplicity           Mult            ....    1
 Number of Electrons    NEL             ....   18
 Basis Dimension        Dim             ....   48
 Nuclear Repulsion      ENuc            ....     40.3666003944 Eh

Convergence Acceleration:
 AO-DIIS                CNVDIIS         .... on
   Start iteration      DIISMaxIt       ....    12
   Startup error        DIISStart       ....  0.200000
   # of expansion vecs  DIISMaxEq       ....     5
   Bias factor          DIISBfac        ....   1.050
   Max. coefficient     DIISMaxC        ....  10.000
 MO-DIIS                CNVKDIIS        .... off
 Trust-Rad. Augm. Hess. CNVTRAH         .... auto
   Auto Start mean grad. ratio tolernc. ....  1.125000
   Auto Start start iteration           ....    50
   Auto Start num. interpolation iter.  ....    10
   Max. Number of Micro iterations      ....    24
   Max. Number of Macro iterations      .... Maxiter - #DIIS iter
   Number of Davidson start vectors     ....     2
   Converg. threshold    (grad. norm)   ....   1.000e-05
   Grad. Scal. Fac. for Micro threshold ....   0.100
   Minimum threshold for Micro iter.    ....   1.000e-02
   NR start threshold (gradient norm)   ....   1.000e-04
   Initial trust radius                 ....   0.400
   Minimum AH scaling param. (alpha)    ....   1.000
   Maximum AH scaling param. (alpha)    .... 1000.000
   Quad. conv. algorithm                .... NR
   White noise on init. David. guess    .... on
   Maximum white noise                  ....   0.010
   Pseudo random numbers                .... off
   Inactive MOs                         .... canonical
   Orbital update algorithm             .... Taylor
   Preconditioner                       .... Diag
   Full preconditioner red. dimension   ....   250
 SOSCF                  CNVSOSCF        .... on
   Start iteration      SOSCFMaxIt      ....   150
   Startup grad/error   SOSCFStart      ....  0.003300
   Hessian update       SOSCFHessUp     .... L-BFGS
 Level Shifting         CNVShift        .... on
   Level shift para.    LevelShift      ....    0.2500
   Turn off err/grad.   ShiftErr        ....    0.0010
 Zerner damping         CNVZerner       .... off
 Static damping         CNVDamp         .... on
   Fraction old density DampFac         ....    0.7000
   Max. Damping (<1)    DampMax         ....    0.9800
   Min. Damping (>=0)   DampMin         ....    0.0000
   Turn off err/grad.   DampErr         ....    0.1000

SCF Procedure:
 Maximum # iterations   MaxIter         ....   125
 SCF integral mode      SCFMode         .... Direct
   Integral package                     .... SHARK and LIBINT hybrid scheme
 Reset frequency        DirectResetFreq ....    20
 Integral Threshold     Thresh          ....  2.500e-11 Eh
 Primitive CutOff       TCut            ....  2.500e-12 Eh

Convergence Tolerance:
 Convergence Check Mode ConvCheckMode   .... Total+1el-Energy
 Convergence forced     ConvForced      .... 0
 Energy Change          TolE            ....  1.000e-08 Eh
 1-El. energy change                    ....  1.000e-05 Eh
 Orbital Gradient       TolG            ....  1.000e-05
 Orbital Rotation angle TolX            ....  1.000e-05
 DIIS Error             TolErr          ....  5.000e-07

------------------------------
INITIAL GUESS: MODEL POTENTIAL
------------------------------
Loading Hartree-Fock densities                     ... done
Calculating cut-offs                               ... done
Initializing the effective Hamiltonian             ... done
Setting up the integral package (SHARK)            ... done
Starting the Coulomb interaction                   ... done (   0.0 sec)
Making the grid                                    ... done (   0.0 sec)
Mapping shells                                     ... done
Starting the XC term evaluation                    ... done (   0.0 sec)
  promolecular density results
     # of electrons  =     17.998339078
     EX              =    -14.511184560
     EC              =     -0.589965026
     EX+EC           =    -15.101149586
Transforming the Hamiltonian                       ... done (   0.0 sec)
Diagonalizing the Hamiltonian                      ... done (   0.0 sec)
Back transforming the eigenvectors                 ... done (   0.0 sec)
Now organizing SCF variables                       ... done
                      ------------------
                      INITIAL GUESS DONE (   0.1 sec)
                      ------------------
             **** ENERGY FILE WAS UPDATED (molecule.en.tmp) ****
Finished Guess after   0.1 sec
Maximum memory used throughout the entire GUESS-calculation: 6.3 MB

-------------------------------------------------------------------------------------------
                                      ORCA LEAN-SCF
                              memory conserving SCF solver
-------------------------------------------------------------------------------------------

----------------------------------------D-I-I-S--------------------------------------------
Iteration    Energy (Eh)           Delta-E    RMSDP     MaxDP     DIISErr   Damp  Time(sec)
-------------------------------------------------------------------------------------------
               ***  Starting incremental Fock matrix formation  ***
    1    -115.4757969065722136     0.00e+00  6.54e-03  7.55e-02  2.55e-01  0.700   0.3
    2    -115.5174875872656060    -4.17e-02  4.20e-03  4.39e-02  1.10e-01  0.700   0.2
                               ***Turning on AO-DIIS***
    3    -115.5332382329196435    -1.58e-02  1.53e-03  1.16e-02  3.02e-02  0.700   0.2
    4    -115.5428353693688734    -9.60e-03  2.43e-03  2.07e-02  1.53e-02  0.000   0.2
    5    -115.5641794553885973    -2.13e-02  4.25e-04  3.53e-03  4.22e-03  0.000   0.2
                              *** Initializing SOSCF ***
---------------------------------------S-O-S-C-F--------------------------------------
Iteration    Energy (Eh)           Delta-E    RMSDP     MaxDP     MaxGrad    Time(sec)
--------------------------------------------------------------------------------------
    6    -115.5642425465225926    -6.31e-05  1.58e-04  1.24e-03  1.15e-03     0.2
               *** Restarting incremental Fock matrix formation ***
    7    -115.5642724546963507    -2.99e-05  9.12e-05  7.80e-04  1.83e-04     0.2
    8    -115.5642727143922741    -2.60e-07  2.38e-05  3.69e-04  1.63e-04     0.2
    9    -115.5642729405766715    -2.26e-07  1.26e-05  1.08e-04  2.06e-05     0.2
   10    -115.5642729452175388    -4.64e-09  3.28e-06  3.87e-05  3.01e-05     0.2
                 **** Energy Check signals convergence ****

               *****************************************************
               *                     SUCCESS                       *
               *           SCF CONVERGED AFTER  10 CYCLES          *
               *****************************************************

Recomputing exchange energy using gridx3       ... done (    0.211 sec)
Old exchange energy                            :     -2.965333312 Eh
New exchange energy                            :     -2.965325224 Eh
Exchange energy change after final integration :      0.000008088 Eh
Total energy after final integration           :   -115.564264858 Eh
             **** ENERGY FILE WAS UPDATED (molecule.en.tmp) ****

----------------
TOTAL SCF ENERGY
----------------

Total Energy       :       -115.56426485764808 Eh           -3144.66352 eV

Components:
Nuclear Repulsion  :         40.36660039439184 Eh            1098.43104 eV
Electronic Energy  :       -155.93087333960938 Eh           -4243.09478 eV
One Electron Energy:       -237.04696566151605 Eh           -6450.37587 eV
Two Electron Energy:         81.11609232190668 Eh            2207.28109 eV

Virial components:
Potential Energy   :       -230.17924663057653 Eh           -6263.49573 eV
Kinetic Energy     :        114.61498177292843 Eh            3118.83221 eV
Virial Ratio       :          2.00828236474879

DFT components:
N(Alpha)           :        9.000002374580 electrons
N(Beta)            :        9.000002374580 electrons
N(Total)           :       18.000004749160 electrons
E(X)               :      -11.778469846167 Eh       
E(C)               :       -0.703615973057 Eh       
E(XC)              :      -12.482085819224 Eh       

---------------
SCF CONVERGENCE
---------------

  Last Energy change         ...    4.6409e-09  Tolerance :   1.0000e-08
  Last MAX-Density change    ...    3.8659e-05  Tolerance :   1.0000e-07
  Last RMS-Density change    ...    3.2801e-06  Tolerance :   5.0000e-09
  Last DIIS Error            ...    1.1492e-03  Tolerance :   5.0000e-07
  Last Orbital Gradient      ...    3.0136e-05  Tolerance :   1.0000e-05
  Last Orbital Rotation      ...    1.2640e-05  Tolerance :   1.0000e-05


----------------
ORBITAL ENERGIES
----------------

  NO   OCC          E(Eh)            E(eV) 
   0   2.0000     -19.115845      -520.1686 
   1   2.0000     -10.221565      -278.1429 
   2   2.0000      -0.992013       -26.9940 
   3   2.0000      -0.666677       -18.1412 
   4   2.0000      -0.495533       -13.4841 
   5   2.0000      -0.436958       -11.8902 
   6   2.0000      -0.420455       -11.4412 
   7   2.0000      -0.323350        -8.7988 
   8   2.0000      -0.260216        -7.0808 
   9   0.0000       0.053041         1.4433 
  10   0.0000       0.098642         2.6842 
  11   0.0000       0.138338         3.7644 
  12   0.0000       0.140545         3.8244 
  13   0.0000       0.194960         5.3051 
  14   0.0000       0.458866        12.4864 
  15   0.0000       0.468134        12.7386 
  16   0.0000       0.479234        13.0406 
  17   0.0000       0.589111        16.0305 
  18   0.0000       0.650649        17.7051 
  19   0.0000       0.660243        17.9661 
*Only the first 10 virtual orbitals were printed.

                    ********************************
                    * MULLIKEN POPULATION ANALYSIS *
                    ********************************

-----------------------
MULLIKEN ATOMIC CHARGES
-----------------------
   0 C :    0.166141
   1 O :   -0.346331
   2 H :   -0.002089
   3 H :   -0.002161
   4 H :    0.021871
   5 H :    0.162568
Sum of atomic charges:   -0.0000000

--------------------------------
MULLIKEN REDUCED ORBITAL CHARGES
--------------------------------
  0 C s       :     2.993381  s :     2.993381
      pz      :     1.006169  p :     2.783945
      px      :     0.735411
      py      :     1.042365
      dz2     :     0.009013  d :     0.056533
      dxz     :     0.014517
      dyz     :     0.005603
      dx2y2   :     0.015726
      dxy     :     0.011675

  1 O s       :     3.742875  s :     3.742875
      pz      :     1.859792  p :     4.590252
      px      :     1.298147
      py      :     1.432313
      dz2     :     0.001732  d :     0.013204
      dxz     :     0.001759
      dyz     :     0.001748
      dx2y2   :     0.005730
      dxy     :     0.002235

  2 H s       :     0.979960  s :     0.979960
      pz      :     0.008764  p :     0.022130
      px      :     0.003733
      py      :     0.009633

  3 H s       :     0.980028  s :     0.980028
      pz      :     0.013140  p :     0.022133
      px      :     0.003735
      py      :     0.005258

  4 H s       :     0.956245  s :     0.956245
      pz      :     0.006173  p :     0.021883
      px      :     0.003065
      py      :     0.012645

  5 H s       :     0.770269  s :     0.770269
      pz      :     0.020561  p :     0.067163
      px      :     0.016392
      py      :     0.030210



                     *******************************
                     * LOEWDIN POPULATION ANALYSIS *
                     *******************************

----------------------
LOEWDIN ATOMIC CHARGES
----------------------
   0 C :    0.068748
   1 O :   -0.166849
   2 H :    0.000890
   3 H :    0.000884
   4 H :    0.019106
   5 H :    0.077222

-------------------------------
LOEWDIN REDUCED ORBITAL CHARGES
-------------------------------
  0 C s       :     2.841489  s :     2.841489
      pz      :     1.069001  p :     2.963858
      px      :     0.813261
      py      :     1.081597
      dz2     :     0.020873  d :     0.125905
      dxz     :     0.032651
      dyz     :     0.014502
      dx2y2   :     0.034280
      dxy     :     0.023599

  1 O s       :     3.459302  s :     3.459302
      pz      :     1.832989  p :     4.683333
      px      :     1.348391
      py      :     1.501954
      dz2     :     0.002871  d :     0.024214
      dxz     :     0.002777
      dyz     :     0.002796
      dx2y2   :     0.011577
      dxy     :     0.004193

  2 H s       :     0.934788  s :     0.934788
      pz      :     0.023807  p :     0.064322
      px      :     0.013466
      py      :     0.027049

  3 H s       :     0.934797  s :     0.934797
      pz      :     0.037844  p :     0.064319
      px      :     0.013466
      py      :     0.013009

  4 H s       :     0.918544  s :     0.918544
      pz      :     0.015073  p :     0.062350
      px      :     0.011170
      py      :     0.036106

  5 H s       :     0.748119  s :     0.748119
      pz      :     0.055246  p :     0.174659
      px      :     0.035930
      py      :     0.083484



                      *****************************
                      * MAYER POPULATION ANALYSIS *
                      *****************************

  NA   - Mulliken gross atomic population
  ZA   - Total nuclear charge
  QA   - Mulliken gross atomic charge
  VA   - Mayer's total valence
  BVA  - Mayer's bonded valence
  FA   - Mayer's free valence

  ATOM       NA         ZA         QA         VA         BVA        FA
  0 C      5.8339     6.0000     0.1661     3.9746     3.9746     0.0000
  1 O      8.3463     8.0000    -0.3463     2.0466     2.0466     0.0000
  2 H      1.0021     1.0000    -0.0021     0.9781     0.9781    -0.0000
  3 H      1.0022     1.0000    -0.0022     0.9781     0.9781    -0.0000
  4 H      0.9781     1.0000     0.0219     0.9858     0.9858    -0.0000
  5 H      0.8374     1.0000     0.1626     1.0095     1.0095     0.0000

  Mayer bond orders larger than 0.100000
B(  0-C ,  1-O ) :   1.0306 B(  0-C ,  2-H ) :   0.9753 B(  0-C ,  3-H ) :   0.9753 
B(  0-C ,  4-H ) :   0.9811 B(  1-O ,  5-H ) :   0.9858 

-------
TIMINGS
-------

Total SCF time: 0 days 0 hours 0 min 2 sec 

Total time                  ....       2.377 sec
Sum of individual times     ....       2.316 sec  ( 97.5%)

SCF preparation             ....       0.076 sec  (  3.2%)
Fock matrix formation       ....       1.924 sec  ( 80.9%)
  Startup                   ....       0.048 sec  (  2.5% of F)
  Split-RI-J                ....       0.160 sec  (  8.3% of F)
  Chain of spheres X        ....       1.064 sec  ( 55.3% of F)
  XC integration            ....       0.508 sec  ( 26.4% of F)
    XC Preparation          ....       0.000 sec  (  0.0% of XC)
    Basis function eval.    ....       0.177 sec  ( 34.8% of XC)
    Density eval.           ....       0.060 sec  ( 11.9% of XC)
    XC-Functional eval.     ....       0.064 sec  ( 12.6% of XC)
    XC-Potential eval.      ....       0.078 sec  ( 15.3% of XC)
Diagonalization             ....       0.000 sec  (  0.0%)
Density matrix formation    ....       0.095 sec  (  4.0%)
Total Energy calculation    ....       0.034 sec  (  1.4%)
Population analysis         ....       0.022 sec  (  0.9%)
Orbital Transformation      ....       0.016 sec  (  0.7%)
Orbital Orthonormalization  ....       0.000 sec  (  0.0%)
DIIS solution               ....       0.105 sec  (  4.4%)
SOSCF solution              ....       0.044 sec  (  1.9%)
Finished LeanSCF after   2.4 sec

Maximum memory used throughout the entire LEANSCF-calculation: 6.4 MB

------------------------------------------------------------------------------
                         ORCA PROPERTY INTEGRAL CALCULATIONS
------------------------------------------------------------------------------

GBWName                                   ... molecule.gbw
Number of atoms                           ...      6
Number of basis functions                 ...     48
Max core memory                           ...   1024 MB

Dipole integrals                          ... YES
Quadrupole integrals                      ...  NO
Linear momentum integrals                 ...  NO
Angular momentum integrals                ...  NO
Higher moments length integrals           ...  NO
Higher moments velocity integrals         ...  NO
Kinetic energy integrals                  ...  NO
GIAO right hand sides                     ...  NO
GIAO dipole derivative integrals          ...  NO
SOC integrals                             ...  NO
EPR diamagnetic integrals (GIAO)          ...  NO
EPR gauge integrals                       ...  NO
Field gradient integrals                  ...  NO (   0 nuclei)
Spin-dipole/Fermi contact integrals       ...  NO (   0 nuclei)
Contact density integrals                 ...  NO (   0 nuclei)
Nucleus-orbit integrals                   ...  NO (   0 nuclei)
Geometric perturbations                   ...  NO (   6 nuclei)

Choice of electric origin   ... Center of mass
Position of electric origin ... (  3.3711, -0.1891, -0.1058) 
Choice of magnetic origin   ... GIAO
Position of magnetic origin ... (  0.0000,  0.0000,  0.0000) 

Calculating integrals                     ... Electric Dipole (Length)     done (  0.0 sec)

Property integrals calculated in   0.0 sec

Maximum memory used throughout the entire PROPINT-calculation: 6.0 MB


-------------------------------------------------------------------------------
                          DFT DISPERSION CORRECTION                            
                                                                               
                                DFTD4 V3.4.0                                   
-------------------------------------------------------------------------------
The B3LYP functional is recognized
Active option DFTDOPT                   ...         5   

-------------------------   ----------------
Dispersion correction           -0.002439959
-------------------------   ----------------


-------------------------   --------------------
FINAL SINGLE POINT ENERGY      -115.566704816678
-------------------------   --------------------

------------------------------------------------------------------------------
                         ORCA SCF GRADIENT CALCULATION
------------------------------------------------------------------------------

Nuc. rep. gradient        (SHARK) ... done (  0.0 sec)
HCore & Overlap gradient  (SHARK) ... done (  0.0 sec)
Split-RIJ-J gradient      (SHARK) ... done (  0.1 sec)
COSX-gradient                     ... done (  1.0 sec)
XC gradient                       ... done (  0.2 sec)
Dispersion correction             ... done (  0.0 sec)

-------------------
DISPERSION GRADIENT
-------------------

   1   C   :   -0.000102048   -0.000012867   -0.000004621
   2   O   :    0.000059204   -0.000045944   -0.000016497
   3   H   :    0.000011523    0.000013890   -0.000003127
   4   H   :    0.000011523    0.000008728    0.000011249
   5   H   :    0.000013556   -0.000004176   -0.000001499
   6   H   :    0.000006242    0.000040368    0.000014495

Difference to translation invariance:
           :   -0.0000000000    0.0000000000   -0.0000000000

Difference to rotation invariance:
           :    0.0000000000   -0.0000000000    0.0000000000

Norm of the Dispersion gradient    ...    0.0001387152
RMS gradient                       ...    0.0000326955
MAX gradient                       ...    0.0001020477

------------------
CARTESIAN GRADIENT
------------------

   1   C   :   -0.019576543    0.005081998    0.001814137
   2   O   :   -0.004172160    0.000682245    0.000237947
   3   H   :    0.010719765    0.004718744   -0.004676662
   4   H   :    0.010719018    0.000670697    0.006615080
   5   H   :    0.000937279   -0.004551241   -0.001633993
   6   H   :    0.001372641   -0.006602442   -0.002356509

Difference to translation invariance:
           :    0.0000000001    0.0000000001    0.0000000000

Difference to rotation invariance:
           :   -0.0000155836   -0.0000388337    0.0000425078

Norm of the Cartesian gradient     ...    0.0287008213
RMS gradient                       ...    0.0067648485
MAX gradient                       ...    0.0195765434

-------
TIMINGS
-------

Total SCF gradient time     ....        1.281 sec

Densities                   ....       0.000 sec  (  0.0%)
One electron gradient       ....       0.005 sec  (  0.4%)
RI-J Coulomb gradient       ....       0.071 sec  (  5.5%)
COSX gradient               ....       0.990 sec  ( 77.2%)
XC gradient                 ....       0.193 sec  ( 15.0%)

Maximum memory used throughout the entire SCFGRAD-calculation: 25.7 MB
------------------------------------------------------------------------------
                         ORCA GEOMETRY RELAXATION STEP
------------------------------------------------------------------------------

Reading the OPT-File                    .... done
Getting information on internals        .... done
Copying old internal coords+grads       .... done
Making the new internal coordinates     .... (2022 redundants) done
Validating the new internal coordinates .... (2022 redundants) done
Calculating the B-matrix                .... done
Calculating the G,G- and P matrices     .... done
Transforming gradient to internals      .... done
Projecting the internal gradient        .... done
Number of atoms                         ....   6
Number of internal coordinates          ....  15
Current Energy                          ....  -115.566704817 Eh
Current gradient norm                   ....     0.028700821 Eh/bohr
Maximum allowed component of the step   ....  0.300
Current trust radius                    ....  0.300
Evaluating the initial hessian          ....  (Almloef) done
Projecting the Hessian                  .... done
Forming the augmented Hessian           .... done
Diagonalizing the augmented Hessian     .... done
Last element of RFO vector              ....  0.997113672
Lowest eigenvalues of augmented Hessian:
 -0.001902500  0.020511049  0.190334658  0.191755286  0.314951697
Length of the computed step             ....  0.076142925
The final length of the internal step   ....  0.076142925
Converting the step to Cartesian space:
 Initial RMS(Int)=    0.0196600187
Transforming coordinates:
 Iter   0:  RMS(Cart)=    0.0236794651 RMS(Int)=    0.0197609029
done
Storing new coordinates                 .... done

                                .--------------------.
          ----------------------|Geometry convergence|-------------------------
          Item                value                   Tolerance       Converged
          ---------------------------------------------------------------------
          RMS gradient        0.0065513681            0.0000300000      NO
          MAX gradient        0.0107906192            0.0001000000      NO
          RMS step            0.0196600187            0.0006000000      NO
          MAX step            0.0343338139            0.0010000000      NO
          ........................................................
          Max(Bonds)      0.0145      Max(Angles)    1.97
          Max(Dihed)        0.73      Max(Improp)    0.00
          ---------------------------------------------------------------------

The optimization has not yet converged - more geometry cycles are needed


    ---------------------------------------------------------------------------
                         Redundant Internal Coordinates
                            (Angstroem and degrees)

        Definition                    Value    dE/dq     Step     New-Value
    ----------------------------------------------------------------------------
     1. B(O   1,C   0)                1.4158 -0.002850  0.0030    1.4187   
     2. B(H   2,C   0)                1.0928 -0.009799  0.0145    1.1072   
     3. B(H   3,C   0)                1.0928 -0.009805  0.0145    1.1072   
     4. B(H   4,C   0)                1.0926 -0.004871  0.0072    1.0998   
     5. B(H   5,O   1)                0.9723  0.007103 -0.0075    0.9648   
     6. A(O   1,C   0,H   3)          109.53 -0.010779    1.97    111.50   
     7. A(O   1,C   0,H   2)          109.53 -0.010791    1.97    111.50   
     8. A(O   1,C   0,H   4)          108.98  0.005971   -1.10    107.87   
     9. A(H   2,C   0,H   4)          109.35  0.004531   -1.01    108.35   
    10. A(H   3,C   0,H   4)          109.35  0.004530   -1.01    108.35   
    11. A(H   2,C   0,H   3)          110.08  0.006590   -0.83    109.25   
    12. A(C   0,O   1,H   5)          107.10 -0.001484    0.24    107.34   
    13. D(H   5,O   1,C   0,H   3)    -60.41  0.002675   -0.70    -61.11   
    14. D(H   5,O   1,C   0,H   4)   -180.00 -0.000008    0.02   -179.98   
    15. D(H   5,O   1,C   0,H   2)     60.41 -0.002686    0.73     61.14   
    ----------------------------------------------------------------------------

Geometry step timings:
Preparation and reading OPT file:      0.001 s (10.841 %)
Internal coordinates            :      0.000 s ( 0.202 %)
B/P matrices and projection     :      0.000 s ( 1.290 %)
Hessian update/contruction      :      0.006 s (64.302 %)
Making the step                 :      0.000 s ( 1.370 %)
Converting the step to Cartesian:      0.000 s ( 0.494 %)
Storing new data                :      0.001 s ( 5.693 %)
Checking convergence            :      0.000 s ( 0.020 %)
Final printing                  :      0.002 s (15.758 %)
Total time                      :      0.010 s

Time for energy+gradient        :      4.382 s
Time for complete geometry iter :      4.571 s

         *************************************************************
         *                GEOMETRY OPTIMIZATION CYCLE   2            *
         *************************************************************
---------------------------------
CARTESIAN COORDINATES (ANGSTROEM)
---------------------------------
  C      1.065392   -0.087936   -0.051608
  O      2.483926   -0.066243   -0.043759
  H      0.668045   -0.866797    0.627698
  H      0.668147   -0.256826   -1.071248
  H      0.710847    0.891897    0.300158
  H      2.786372   -0.928415   -0.353560

----------------------------
CARTESIAN COORDINATES (A.U.)
----------------------------
  NO LB      ZA    FRAG     MASS         X           Y           Z
   0 C     6.0000    0    12.011    2.013299   -0.166174   -0.097526
   1 O     8.0000    0    15.999    4.693940   -0.125181   -0.082693
   2 H     1.0000    0     1.008    1.262423   -1.638008    1.186178
   3 H     1.0000    0     1.008    1.262615   -0.485330   -2.024366
   4 H     1.0000    0     1.008    1.343307    1.685441    0.567216
   5 H     1.0000    0     1.008    5.265480   -1.754451   -0.668132

--------------------------------
INTERNAL COORDINATES (ANGSTROEM)
--------------------------------
 C      0   0   0     0.000000000000     0.00000000     0.00000000
 O      1   0   0     1.418721583601     0.00000000     0.00000000
 H      1   2   0     1.107233811013   111.48011289     0.00000000
 H      1   2   3     1.107245707686   111.47827000   237.67673069
 H      1   2   3     1.099778528501   107.87513160   118.83906939
 H      2   1   3     0.964775178879   107.33790619    61.17703561

---------------------------
INTERNAL COORDINATES (A.U.)
---------------------------
 C      0   0   0     0.000000000000     0.00000000     0.00000000
 O      1   0   0     2.680995253290     0.00000000     0.00000000
 H      1   2   0     2.092368669032   111.48011289     0.00000000
 H      1   2   3     2.092391150486   111.47827000   237.67673069
 H      1   2   3     2.078280226834   107.87513160   118.83906939
 H      2   1   3     1.823160868886   107.33790619    61.17703561

------------------------------------------------------------------------------
                   ___                                                        
                  /   \      - P O W E R E D   B Y -                         
                 /     \                                                     
                 |  |  |   _    _      __       _____    __    __             
                 |  |  |  | |  | |    /  \     |  _  \  |  |  /  |          
                  \  \/   | |  | |   /    \    | | | |  |  | /  /          
                 / \  \   | |__| |  /  /\  \   | |_| |  |  |/  /          
                |  |  |   |  __  | /  /__\  \  |    /   |      \           
                |  |  |   | |  | | |   __   |  |    \   |  |\   \          
                \     /   | |  | | |  |  |  |  | |\  \  |  | \   \       
                 \___/    |_|  |_| |__|  |__|  |_| \__\ |__|  \__/        
                                                                              
                      - O R C A' S   B I G   F R I E N D -                    
                                      &                                       
                       - I N T E G R A L  F E E D E R -                       
                                                                              
 v1 FN, 2020, v2 2021, v3 2022-2024                                           
------------------------------------------------------------------------------


----------------------
SHARK INTEGRAL PACKAGE
----------------------

Number of atoms                             ...      6
Number of basis functions                   ...     48
Number of shells                            ...     24
Maximum angular momentum                    ...      2
Integral batch strategy                     ... SHARK/LIBINT Hybrid
RI-J (if used) integral strategy            ... SPLIT-RIJ (Revised 2003 algorithm where possible)
Printlevel                                  ...      1
Contraction scheme used                     ... SEGMENTED contraction
Prescreening option                         ... SCHWARTZ
   Thresh                                   ... 2.500e-11
   Tcut                                     ... 2.500e-12
   Tpresel                                  ... 2.500e-12 
Coulomb Range Separation                    ... NOT USED
Exchange Range Separation                   ... NOT USED
Multipole approximations                    ... NOT USED
Finite Nucleus Model                        ... NOT USED
CABS basis                                  ... NOT available
Auxiliary Coulomb fitting basis             ... AVAILABLE
   # of basis functions in Aux-J            ...    142
   # of shells in Aux-J                     ...     50
   Maximum angular momentum in Aux-J        ...      4
Auxiliary J/K fitting basis                 ... NOT available
Auxiliary Correlation fitting basis         ... NOT available
Auxiliary 'external' fitting basis          ... NOT available

Checking pre-screening integrals            ... done (  0.0 sec) Dimension = 24
Check shell pair data                       ... done (  0.0 sec)
Shell pair information
Shell pair cut-off parameter TPreSel        ...   2.5e-12
Total number of shell pairs                 ...       300
Shell pairs after pre-screening             ...       300
Total number of primitive shell pairs       ...      1028
Primitive shell pairs kept                  ...       939
          la=0 lb=0:    105 shell pairs
          la=1 lb=0:    112 shell pairs
          la=1 lb=1:     36 shell pairs
          la=2 lb=0:     28 shell pairs
          la=2 lb=1:     16 shell pairs
          la=2 lb=2:      3 shell pairs

Calculating one electron integrals          ... done (  0.0 sec)
Calculating RI/J V-Matrix + Cholesky decomp.... done (  0.0 sec)
Calculating Nuclear repulsion               ... done (  0.0 sec) ENN=     40.187759748832 Eh

Diagonalization of the overlap matrix:
Smallest eigenvalue                        ... 1.182e-02
Time for diagonalization                   ...    0.000 sec
Threshold for overlap eigenvalues          ... 1.000e-07
Number of eigenvalues below threshold      ... 0
Time for construction of square roots      ...    0.004 sec
Total time needed                          ...    0.008 sec

-------------------
DFT GRID GENERATION
-------------------

General Integration Accuracy     IntAcc      ... 4.388
Radial Grid Type                 RadialGrid  ... OptM3 with GC (2021)
Angular Grid (max. ang.)         AngularGrid ... 4 (Lebedev-302)
Angular grid pruning method      GridPruning ... 4 (adaptive)
Weight generation scheme         WeightScheme... mBecke (2022)
Basis function cutoff            BFCut       ... 1.0000e-11
Integration weight cutoff        WCut        ... 1.0000e-14
Partially contracted basis set               ... off
Rotationally invariant grid construction     ... off
Angular grids for H and He will be reduced by one unit

Total number of grid points                  ...    25298
Total number of batches                      ...      399
Average number of points per batch           ...       63
Average number of grid points per atom       ...     4216

--------------------
COSX GRID GENERATION
--------------------

GRIDX 1
-------
General Integration Accuracy     IntAcc      ... 3.816
Radial Grid Type                 RadialGrid  ... OptM3 with GC (2021)
Angular Grid (max. ang.)         AngularGrid ... 1 (Lebedev-50)
Angular grid pruning method      GridPruning ... 4 (adaptive)
Weight generation scheme         WeightScheme... mBecke (2022)
Basis function cutoff            BFCut       ... 1.0000e-11
Integration weight cutoff        WCut        ... 1.0000e-14
Partially contracted basis set               ... on
Rotationally invariant grid construction     ... off
Angular grids for H and He will be reduced by one unit

Total number of grid points                  ...     3277
Total number of batches                      ...       29
Average number of points per batch           ...      113
Average number of grid points per atom       ...      546
UseSFitting                                  ... on

GRIDX 2
-------
General Integration Accuracy     IntAcc      ... 4.020
Radial Grid Type                 RadialGrid  ... OptM3 with GC (2021)
Angular Grid (max. ang.)         AngularGrid ... 2 (Lebedev-110)
Angular grid pruning method      GridPruning ... 4 (adaptive)
Weight generation scheme         WeightScheme... mBecke (2022)
Basis function cutoff            BFCut       ... 1.0000e-11
Integration weight cutoff        WCut        ... 1.0000e-14
Partially contracted basis set               ... on
Rotationally invariant grid construction     ... off
Angular grids for H and He will be reduced by one unit

Total number of grid points                  ...     6903
Total number of batches                      ...       57
Average number of points per batch           ...      121
Average number of grid points per atom       ...     1150
UseSFitting                                  ... on

GRIDX 3
-------
General Integration Accuracy     IntAcc      ... 4.338
Radial Grid Type                 RadialGrid  ... OptM3 with GC (2021)
Angular Grid (max. ang.)         AngularGrid ... 3 (Lebedev-194)
Angular grid pruning method      GridPruning ... 4 (adaptive)
Weight generation scheme         WeightScheme... mBecke (2022)
Basis function cutoff            BFCut       ... 1.0000e-11
Integration weight cutoff        WCut        ... 1.0000e-14
Partially contracted basis set               ... on
Rotationally invariant grid construction     ... off
Angular grids for H and He will be reduced by one unit

Total number of grid points                  ...    15249
Total number of batches                      ...      121
Average number of points per batch           ...      126
Average number of grid points per atom       ...     2542
UseSFitting                                  ... on
Initializing property integral containers    ... done (  0.0 sec)

SHARK setup successfully completed in   0.2 seconds

Maximum memory used throughout the entire STARTUP-calculation: 11.5 MB
Occupation numbers will be reassigned to an Aufbau configuration
             **** ENERGY FILE WAS UPDATED (molecule.en.tmp) ****
Finished Guess after   0.1 sec
Maximum memory used throughout the entire GUESS-calculation: 5.9 MB
----------------------------------------D-I-I-S--------------------------------------------
Iteration    Energy (Eh)           Delta-E    RMSDP     MaxDP     DIISErr   Damp  Time(sec)
-------------------------------------------------------------------------------------------
               ***  Starting incremental Fock matrix formation  ***
    1    -115.5652562115347735     0.00e+00  2.31e-04  2.05e-03  5.07e-03  0.700   0.2
    2    -115.5653191110713180    -6.29e-05  2.07e-04  1.67e-03  3.37e-03  0.700   0.2
                               ***Turning on AO-DIIS***
                              *** Initializing SOSCF ***
---------------------------------------S-O-S-C-F--------------------------------------
Iteration    Energy (Eh)           Delta-E    RMSDP     MaxDP     MaxGrad    Time(sec)
--------------------------------------------------------------------------------------
    3    -115.5653640150820536    -4.49e-05  5.42e-04  3.94e-03  2.42e-03     0.2
               *** Restarting incremental Fock matrix formation ***
    4    -115.5654704672337800    -1.06e-04  1.36e-04  1.47e-03  5.60e-04     0.2
    5    -115.5654687406950529     1.73e-06  7.65e-05  9.59e-04  8.13e-04     0.2
    6    -115.5654727396566841    -4.00e-06  8.13e-06  1.06e-04  2.96e-05     0.2
    7    -115.5654727396546093     2.07e-12  4.18e-06  5.42e-05  3.05e-05     0.2
                 **** Energy Check signals convergence ****

               *****************************************************
               *                     SUCCESS                       *
               *           SCF CONVERGED AFTER   7 CYCLES          *
               *****************************************************

Recomputing exchange energy using gridx3       ... done (    0.211 sec)
Old exchange energy                            :     -2.962631069 Eh
New exchange energy                            :     -2.962624967 Eh
Exchange energy change after final integration :      0.000006102 Eh
Total energy after final integration           :   -115.565466638 Eh
             **** ENERGY FILE WAS UPDATED (molecule.en.tmp) ****

----------------
TOTAL SCF ENERGY
----------------

Total Energy       :       -115.56546663752904 Eh           -3144.69622 eV

Components:
Nuclear Repulsion  :         40.18775974883230 Eh            1093.56454 eV
Electronic Energy  :       -155.75323248848690 Eh           -4238.26093 eV
One Electron Energy:       -236.68659650080869 Eh           -6440.56972 eV
Two Electron Energy:         80.93336401232180 Eh            2202.30880 eV

Virial components:
Potential Energy   :       -230.13545129940076 Eh           -6262.30400 eV
Kinetic Energy     :        114.56998466187170 Eh            3117.60778 eV
Virial Ratio       :          2.00868885492649

DFT components:
N(Alpha)           :        9.000002012175 electrons
N(Beta)            :        9.000002012175 electrons
N(Total)           :       18.000004024351 electrons
E(X)               :      -11.769100474227 Eh       
E(C)               :       -0.702997033742 Eh       
E(XC)              :      -12.472097507969 Eh       

---------------
SCF CONVERGENCE
---------------

  Last Energy change         ...   -2.0748e-12  Tolerance :   1.0000e-08
  Last MAX-Density change    ...    5.4152e-05  Tolerance :   1.0000e-07
  Last RMS-Density change    ...    4.1847e-06  Tolerance :   5.0000e-09
  Last DIIS Error            ...    2.4207e-03  Tolerance :   5.0000e-07
  Last Orbital Gradient      ...    3.0502e-05  Tolerance :   1.0000e-05
  Last Orbital Rotation      ...    2.1590e-05  Tolerance :   1.0000e-05


Total SCF time: 0 days 0 hours 0 min 1 sec 
Finished LeanSCF after   1.8 sec

Maximum memory used throughout the entire LEANSCF-calculation: 6.5 MB

------------------------------------------------------------------------------
                         ORCA PROPERTY INTEGRAL CALCULATIONS
------------------------------------------------------------------------------

GBWName                                   ... molecule.gbw
Number of atoms                           ...      6
Number of basis functions                 ...     48
Max core memory                           ...   1024 MB

Dipole integrals                          ... YES
Quadrupole integrals                      ...  NO
Linear momentum integrals                 ...  NO
Angular momentum integrals                ...  NO
Higher moments length integrals           ...  NO
Higher moments velocity integrals         ...  NO
Kinetic energy integrals                  ...  NO
GIAO right hand sides                     ...  NO
GIAO dipole derivative integrals          ...  NO
SOC integrals                             ...  NO
EPR diamagnetic integrals (GIAO)          ...  NO
EPR gauge integrals                       ...  NO
Field gradient integrals                  ...  NO (   0 nuclei)
Spin-dipole/Fermi contact integrals       ...  NO (   0 nuclei)
Contact density integrals                 ...  NO (   0 nuclei)
Nucleus-orbit integrals                   ...  NO (   0 nuclei)
Geometric perturbations                   ...  NO (   6 nuclei)

Choice of electric origin   ... Center of mass
Position of electric origin ... (  3.3858, -0.1938, -0.1074) 
Choice of magnetic origin   ... GIAO
Position of magnetic origin ... (  0.0000,  0.0000,  0.0000) 

Calculating integrals                     ... Electric Dipole (Length)     done (  0.0 sec)

Property integrals calculated in   0.0 sec

Maximum memory used throughout the entire PROPINT-calculation: 6.0 MB


-------------------------------------------------------------------------------
                          DFT DISPERSION CORRECTION                            
                                                                               
                                DFTD4 V3.4.0                                   
-------------------------------------------------------------------------------
-------------------------   ----------------
Dispersion correction           -0.002439975
-------------------------   ----------------


-------------------------   --------------------
FINAL SINGLE POINT ENERGY      -115.567906612945
-------------------------   --------------------

------------------------------------------------------------------------------
                         ORCA SCF GRADIENT CALCULATION
------------------------------------------------------------------------------

Nuc. rep. gradient        (SHARK) ... done (  0.0 sec)
HCore & Overlap gradient  (SHARK) ... done (  0.0 sec)
Split-RIJ-J gradient      (SHARK) ... done (  0.1 sec)
COSX-gradient                     ... done (  1.0 sec)
XC gradient                       ... done (  0.2 sec)
Dispersion correction             ... done (  0.0 sec)

-------------------
DISPERSION GRADIENT
-------------------

   1   C   :   -0.000105037   -0.000013024   -0.000004688
   2   O   :    0.000062871   -0.000042463   -0.000015258
   3   H   :    0.000010783    0.000014319   -0.000004383
   4   H   :    0.000010782    0.000008260    0.000012497
   5   H   :    0.000014670   -0.000006314   -0.000002264
   6   H   :    0.000005932    0.000039222    0.000014095

Difference to translation invariance:
           :    0.0000000000   -0.0000000000   -0.0000000000

Difference to rotation invariance:
           :    0.0000000000    0.0000000000   -0.0000000000

Norm of the Dispersion gradient    ...    0.0001411620
RMS gradient                       ...    0.0000332722
MAX gradient                       ...    0.0001050373

------------------
CARTESIAN GRADIENT
------------------

   1   C   :   -0.011177152    0.002748417    0.000985753
   2   O   :    0.004614786   -0.002283148   -0.000829966
   3   H   :    0.003582255   -0.000451396    0.000526206
   4   H   :    0.003581138   -0.000012604   -0.000696316
   5   H   :    0.000278762   -0.000381733   -0.000136338
   6   H   :   -0.000879790    0.000380465    0.000150661

Difference to translation invariance:
           :    0.0000000001    0.0000000001    0.0000000000

Difference to rotation invariance:
           :   -0.0000181274   -0.0000300396    0.0000339485

Norm of the Cartesian gradient     ...    0.0137280134
RMS gradient                       ...    0.0032357238
MAX gradient                       ...    0.0111771518

-------
TIMINGS
-------

Total SCF gradient time     ....        1.305 sec

Densities                   ....       0.000 sec  (  0.0%)
One electron gradient       ....       0.006 sec  (  0.5%)
RI-J Coulomb gradient       ....       0.073 sec  (  5.6%)
COSX gradient               ....       1.006 sec  ( 77.1%)
XC gradient                 ....       0.196 sec  ( 15.0%)

Maximum memory used throughout the entire SCFGRAD-calculation: 25.7 MB
------------------------------------------------------------------------------
                         ORCA GEOMETRY RELAXATION STEP
------------------------------------------------------------------------------

Reading the OPT-File                    .... done
Getting information on internals        .... done
Copying old internal coords+grads       .... done
Making the new internal coordinates     .... (2022 redundants) done
Validating the new internal coordinates .... (2022 redundants) done
Calculating the B-matrix                .... done
Calculating the G,G- and P matrices     .... done
Transforming gradient to internals      .... done
Projecting the internal gradient        .... done
Number of atoms                         ....   6
Number of internal coordinates          ....  15
Current Energy                          ....  -115.567906613 Eh
Current gradient norm                   ....     0.013728013 Eh/bohr
Maximum allowed component of the step   ....  0.300
Current trust radius                    ....  0.300
Updating the Hessian (BFGS)             .... done
Forming the augmented Hessian           .... done
Diagonalizing the augmented Hessian     .... done
Last element of RFO vector              ....  0.999007083
Lowest eigenvalues of augmented Hessian:
 -0.000397318  0.020510934  0.173712010  0.191755288  0.219002972
Length of the computed step             ....  0.044595917
The final length of the internal step   ....  0.044595917
Converting the step to Cartesian space:
 Initial RMS(Int)=    0.0115146163
Transforming coordinates:
 Iter   0:  RMS(Cart)=    0.0132056508 RMS(Int)=    0.0115679418
done
Storing new coordinates                 .... done
The predicted energy change is          ....    -0.000199054
Previously predicted energy change      ....    -0.000956765
Actually observed energy change         ....    -0.001201796
Ratio of predicted to observed change   ....     1.256103905
New trust radius                        ....     0.300000000

                                .--------------------.
          ----------------------|Geometry convergence|-------------------------
          Item                value                   Tolerance       Converged
          ---------------------------------------------------------------------
          Energy change      -0.0012017963            0.0000010000      NO
          RMS gradient        0.0023771846            0.0000300000      NO
          MAX gradient        0.0045697875            0.0001000000      NO
          RMS step            0.0115146163            0.0006000000      NO
          MAX step            0.0237086545            0.0010000000      NO
          ........................................................
          Max(Bonds)      0.0049      Max(Angles)    1.36
          Max(Dihed)        0.41      Max(Improp)    0.00
          ---------------------------------------------------------------------

The optimization has not yet converged - more geometry cycles are needed


    ---------------------------------------------------------------------------
                         Redundant Internal Coordinates
                            (Angstroem and degrees)

        Definition                    Value    dE/dq     Step     New-Value
    ----------------------------------------------------------------------------
     1. B(O   1,C   0)                1.4187  0.003700 -0.0049    1.4138   
     2. B(H   2,C   0)                1.1072 -0.000645  0.0029    1.1101   
     3. B(H   3,C   0)                1.1072 -0.000643  0.0029    1.1101   
     4. B(H   4,C   0)                1.0998 -0.000473  0.0017    1.1015   
     5. B(H   5,O   1)                0.9648 -0.000661  0.0002    0.9649   
     6. A(O   1,C   0,H   3)          111.48 -0.004565    1.36    112.84   
     7. A(O   1,C   0,H   2)          111.48 -0.004570    1.36    112.84   
     8. A(O   1,C   0,H   4)          107.88  0.001816   -0.57    107.31   
     9. A(H   2,C   0,H   4)          108.35  0.002051   -0.69    107.65   
    10. A(H   3,C   0,H   4)          108.35  0.002052   -0.69    107.65   
    11. A(H   2,C   0,H   3)          109.20  0.003545   -0.80    108.40   
    12. A(C   0,O   1,H   5)          107.34 -0.001296    0.31    107.65   
    13. D(H   5,O   1,C   0,H   3)    -61.15  0.000971   -0.37    -61.51   
    14. D(H   5,O   1,C   0,H   4)   -179.98 -0.000007    0.02   -179.96   
    15. D(H   5,O   1,C   0,H   2)     61.18 -0.000982    0.41     61.59   
    ----------------------------------------------------------------------------

Geometry step timings:
Preparation and reading OPT file:      0.001 s ( 6.719 %)
Internal coordinates            :      0.000 s ( 0.249 %)
B/P matrices and projection     :      0.000 s ( 1.192 %)
Hessian update/contruction      :      0.005 s (68.212 %)
Making the step                 :      0.000 s ( 0.995 %)
Converting the step to Cartesian:      0.000 s ( 0.262 %)
Storing new data                :      0.000 s ( 5.842 %)
Checking convergence            :      0.000 s ( 0.144 %)
Final printing                  :      0.001 s (16.372 %)
Total time                      :      0.008 s

Time for energy+gradient        :      3.626 s
Time for complete geometry iter :      3.821 s

         *************************************************************
         *                GEOMETRY OPTIMIZATION CYCLE   3            *
         *************************************************************
---------------------------------
CARTESIAN COORDINATES (ANGSTROEM)
---------------------------------
  C      1.072097   -0.093951   -0.053728
  O      2.485514   -0.063939   -0.042797
  H      0.652734   -0.865257    0.625635
  H      0.652978   -0.257054   -1.068649
  H      0.720636    0.888613    0.298927
  H      2.798771   -0.922732   -0.351708

----------------------------
CARTESIAN COORDINATES (A.U.)
----------------------------
  NO LB      ZA    FRAG     MASS         X           Y           Z
   0 C     6.0000    0    12.011    2.025969   -0.177541   -0.101531
   1 O     8.0000    0    15.999    4.696942   -0.120827   -0.080875
   2 H     1.0000    0     1.008    1.233488   -1.635098    1.182279
   3 H     1.0000    0     1.008    1.233950   -0.485762   -2.019455
   4 H     1.0000    0     1.008    1.361805    1.679235    0.564890
   5 H     1.0000    0     1.008    5.288910   -1.743711   -0.664631

--------------------------------
INTERNAL COORDINATES (ANGSTROEM)
--------------------------------
 C      0   0   0     0.000000000000     0.00000000     0.00000000
 O      1   0   0     1.413778700365     0.00000000     0.00000000
 H      1   2   0     1.110095297118   112.81105144     0.00000000
 H      1   2   3     1.110103144366   112.80773801   236.81504906
 H      1   2   3     1.101508349396   107.31227587   118.40898947
 H      2   1   3     0.964925398991   107.64940394    61.63084139

---------------------------
INTERNAL COORDINATES (A.U.)
---------------------------
 C      0   0   0     0.000000000000     0.00000000     0.00000000
 O      1   0   0     2.671654557661     0.00000000     0.00000000
 H      1   2   0     2.097776094107   112.81105144     0.00000000
 H      1   2   3     2.097790923257   112.80773801   236.81504906
 H      1   2   3     2.081549114586   107.31227587   118.40898947
 H      2   1   3     1.823444743757   107.64940394    61.63084139

------------------------------------------------------------------------------
                   ___                                                        
[...]
x,y,z [a.u.] :    -0.285383    -0.569568    -0.000093 
x,y,z [Debye]:    -0.725386    -1.447727    -0.000235 

 

Dipole moment calculation done in   0.0 sec 

-----------
SCF HESSIAN
-----------

Occupied/Occupied contributions to the Hessian:
   => Occupied/Occupied contributions              ... done (  0.0 sec)
Perturbed density contributions to the Hessian:
   => Perturbed density contributions              ... done (  0.0 sec)
Explicit contributions to the Hessian:
   => Nuclear repulsion Hessian                    ... done (  0.0 sec)
   => HCore and overlap Hessian                    ... done (  0.1 sec)
   => RI-J Hessian                                 ... done (  0.2 sec)
   => COSX Hessian                                 ... done (  8.6 sec)
   => XC-Hessian                                   ... done (  1.2 sec)
   => Van der Waals-Hessian                        ... done (  0.5 sec)
   => Explicit contributions done
Dipole derivatives                                 ... done (  0.0 sec)
Mass weighting the Hessian           ... done
Calculating normal modes             ... done
Scaling frequencies                  ... done

-----------------------
VIBRATIONAL FREQUENCIES
-----------------------

Scaling factor for frequencies =  1.000000000  (already applied!)

     0:       0.00 cm**-1
     1:       0.00 cm**-1
     2:       0.00 cm**-1
     3:       0.00 cm**-1
     4:       0.00 cm**-1
     5:       0.00 cm**-1
     6:     331.62 cm**-1
     7:    1069.98 cm**-1
     8:    1106.95 cm**-1
     9:    1170.81 cm**-1
    10:    1363.93 cm**-1
    11:    1467.54 cm**-1
    12:    1473.81 cm**-1
    13:    1493.15 cm**-1
    14:    2959.11 cm**-1
    15:    3009.05 cm**-1
    16:    3102.36 cm**-1
    17:    3818.82 cm**-1


------------
NORMAL MODES
------------

These modes are the Cartesian displacements weighted by the diagonal matrix
M(i,i)=1/sqrt(m[i]) where m[i] is the mass of the displaced atom
Thus, these vectors are normalized but *not* orthogonal

                  0          1          2          3          4          5    
      0       0.000000   0.000000   0.000000   0.000000   0.000000   0.000000
      1       0.000000   0.000000   0.000000   0.000000   0.000000   0.000000
      2       0.000000   0.000000   0.000000   0.000000   0.000000   0.000000
      3       0.000000   0.000000   0.000000   0.000000   0.000000   0.000000
      4       0.000000   0.000000   0.000000   0.000000   0.000000   0.000000
      5       0.000000   0.000000   0.000000   0.000000   0.000000   0.000000
      6       0.000000   0.000000   0.000000   0.000000   0.000000   0.000000
      7       0.000000   0.000000   0.000000   0.000000   0.000000   0.000000
      8       0.000000   0.000000   0.000000   0.000000   0.000000   0.000000
      9       0.000000   0.000000   0.000000   0.000000   0.000000   0.000000
     10       0.000000   0.000000   0.000000   0.000000   0.000000   0.000000
     11       0.000000   0.000000   0.000000   0.000000   0.000000   0.000000
     12       0.000000   0.000000   0.000000   0.000000   0.000000   0.000000
     13       0.000000   0.000000   0.000000   0.000000   0.000000   0.000000
     14       0.000000   0.000000   0.000000   0.000000   0.000000   0.000000
     15       0.000000   0.000000   0.000000   0.000000   0.000000   0.000000
     16       0.000000   0.000000   0.000000   0.000000   0.000000   0.000000
     17       0.000000   0.000000   0.000000   0.000000   0.000000   0.000000
                  6          7          8          9         10         11    
      0       0.000011  -0.069370   0.353431  -0.000198  -0.020577  -0.000498
      1      -0.001209   0.069186   0.062015  -0.047961   0.120411   0.019061
      2       0.003232   0.024921   0.022654   0.132879   0.043429  -0.052239
      3       0.000036   0.099101  -0.287075   0.000158  -0.020801  -0.000017
      4       0.021717  -0.002754  -0.016903   0.021421  -0.075327   0.003457
      5      -0.060067  -0.000941  -0.006263  -0.059341  -0.027229  -0.009218
      6       0.048415   0.216344   0.480777  -0.634193   0.106016  -0.294339
      7      -0.176818  -0.206021  -0.145626  -0.006747  -0.174253   0.344364
      8      -0.172484  -0.117962  -0.095402  -0.211167  -0.211407   0.177896
      9      -0.048310   0.217918   0.483839   0.632509   0.107074   0.295976
     10       0.246123  -0.233852  -0.172741   0.140349  -0.268328  -0.387445
     11      -0.020884  -0.040274  -0.019456  -0.158080   0.052216  -0.081113
     12      -0.000061  -0.590716  -0.141169   0.001392  -0.407144   0.005266
     13      -0.098998  -0.102746  -0.088114   0.098343   0.001676  -0.240444
     14       0.275778  -0.037492  -0.032247  -0.273486   0.000319   0.676595
     15      -0.000749  -0.589881  -0.478346   0.000146   0.769404  -0.000692
     16      -0.300588  -0.238066  -0.064194  -0.000459   0.201721   0.001536
     17       0.832463  -0.086292  -0.023420   0.001264   0.073568  -0.004610
                 12         13         14         15         16         17    
      0      -0.078448  -0.082316   0.043837  -0.000084   0.015102  -0.001145
      1       0.029557  -0.019690   0.027854   0.031842  -0.083591  -0.002311
      2       0.011076  -0.007154   0.009809  -0.088672  -0.030080  -0.000834
      3      -0.006887  -0.012094   0.002901  -0.000006   0.000046   0.023020
      4       0.012195  -0.018935  -0.000112  -0.000156   0.001682  -0.054725
      5       0.004479  -0.006857  -0.000034   0.000435   0.000605  -0.019742
      6       0.224081   0.509699  -0.246258  -0.254919   0.060334  -0.003723
      7      -0.359249   0.105324  -0.471395  -0.500735   0.108631   0.000610
      8      -0.244681   0.463294   0.427806   0.421500  -0.115336   0.000102
      9       0.218794   0.511492  -0.244865   0.255491   0.060708  -0.003727
     10      -0.426361   0.374382  -0.091277   0.118767   0.010751   0.000546
     11      -0.038050  -0.290665  -0.627386   0.646349   0.159336   0.000350
     12       0.669633   0.016256  -0.080942   0.000500  -0.298944  -0.001521
     13       0.249543   0.021582   0.236009   0.006718   0.864926   0.013385
     14       0.083191   0.009146   0.084512  -0.022872   0.310192   0.004788
     15      -0.068434   0.135360   0.003670   0.000022  -0.002784  -0.342759
     16      -0.009694   0.033859  -0.003452  -0.001699  -0.014959   0.881591
     17      -0.003535   0.012307  -0.001278   0.004707  -0.005379   0.318054


-----------
IR SPECTRUM
-----------

 Mode   freq       eps      Int      T**2         TX        TY        TZ
       cm**-1   L/(mol*cm) km/mol    a.u.
----------------------------------------------------------------------------
  6:    331.62   0.024520  123.91  0.023074  (-0.000123 -0.051480  0.142911)
  7:   1069.98   0.017739   89.65  0.005174  (-0.071678 -0.005617 -0.002068)
  8:   1106.95   0.007715   38.99  0.002175  ( 0.046627  0.000857  0.000308)
  9:   1170.81   0.000160    0.81  0.000043  (-0.000036 -0.002215  0.006150)
 10:   1363.93   0.005555   28.07  0.001271  ( 0.035304  0.004653  0.001723)
 11:   1467.54   0.000332    1.68  0.000071  (-0.000109 -0.002860  0.007896)
 12:   1473.81   0.001159    5.86  0.000245  (-0.015071 -0.004006 -0.001500)
 13:   1493.15   0.001529    7.73  0.000319  (-0.015694  0.008036  0.002932)
 14:   2959.11   0.013371   67.57  0.001410  ( 0.035236  0.012242  0.004316)
 15:   3009.05   0.016425   83.01  0.001703  (-0.000039  0.013965 -0.038838)
 16:   3102.36   0.006112   30.89  0.000615  ( 0.004728 -0.022894 -0.008264)
 17:   3818.82   0.005171   26.13  0.000423  (-0.011663  0.015924  0.005746)

* The epsilon (eps) is given for a Dirac delta lineshape.
** The dipole moment derivative (T) already includes vibrational overlap.

The first frequency considered to be a vibration is 6
The total number of vibrations considered is 12


--------------------------
THERMOCHEMISTRY AT 298.15K
--------------------------

Temperature         ...   298.15 K
Pressure            ...     1.00 atm
Total Mass          ...    32.04 AMU
Quasi RRHO          ...     True
Cut-Off Frequency   ...     1.00 cm^-1

Throughout the following assumptions are being made:
  (1) The electronic state is orbitally nondegenerate
  (2) There are no thermally accessible electronically excited states
  (3) Hindered rotations indicated by low frequency modes are not
      treated as such but are treated as vibrations and this may
      cause some error
  (4) All equations used are the standard statistical mechanics
      equations for an ideal gas
  (5) All vibrations are strictly harmonic

freq.     331.62  E(vib)   ...       0.24 
freq.    1069.98  E(vib)   ...       0.02 
freq.    1106.95  E(vib)   ...       0.02 
freq.    1170.81  E(vib)   ...       0.01 
freq.    1363.93  E(vib)   ...       0.01 
freq.    1467.54  E(vib)   ...       0.00 
freq.    1473.81  E(vib)   ...       0.00 
freq.    1493.15  E(vib)   ...       0.00 
freq.    2959.11  E(vib)   ...       0.00 
freq.    3009.05  E(vib)   ...       0.00 
freq.    3102.36  E(vib)   ...       0.00 
freq.    3818.82  E(vib)   ...       0.00 

------------
INNER ENERGY
------------

The inner energy is: U= E(el) + E(ZPE) + E(vib) + E(rot) + E(trans)
    E(el)   - is the total energy from the electronic structure calculation
              = E(kin-el) + E(nuc-el) + E(el-el) + E(nuc-nuc)
    E(ZPE)  - the the zero temperature vibrational energy from the frequency calculation
    E(vib)  - the the finite temperature correction to E(ZPE) due to population
              of excited vibrational states
    E(rot)  - is the rotational thermal energy
    E(trans)- is the translational thermal energy

Summary of contributions to the inner energy U:
Electronic energy                ...   -115.56819388 Eh
Zero point energy                ...      0.05095609 Eh      31.98 kcal/mol
Thermal vibrational correction   ...      0.00047808 Eh       0.30 kcal/mol
Thermal rotational correction    ...      0.00141627 Eh       0.89 kcal/mol
Thermal translational correction ...      0.00141627 Eh       0.89 kcal/mol
-----------------------------------------------------------------------
Total thermal energy                   -115.51392718 Eh


Summary of corrections to the electronic energy:
(perhaps to be used in another calculation)
Total thermal correction                  0.00331062 Eh       2.08 kcal/mol
Non-thermal (ZPE) correction              0.05095609 Eh      31.98 kcal/mol
-----------------------------------------------------------------------
Total correction                          0.05426671 Eh      34.05 kcal/mol


--------
ENTHALPY
--------

The enthalpy is H = U + kB*T
                kB is Boltzmann's constant
Total thermal energy              ...   -115.51392718 Eh 
Thermal Enthalpy correction       ...      0.00094421 Eh       0.59 kcal/mol
-----------------------------------------------------------------------
Total Enthalpy                    ...   -115.51298297 Eh


Note: Only C1 symmetry has been detected, increase convergence thresholds 
      if your molecule has a higher symmetry. Symmetry factor of 1.0 is   
      used for the rotational entropy correction. 
 

Note: Rotational entropy computed according to Herzberg 
Infrared and Raman Spectra, Chapter V,1, Van Nostrand Reinhold, 1945 
Point Group:  C1, Symmetry Number:   1  
Rotational constants in cm-1:     4.233339     0.832106     0.802628 

Vibrational entropy computed according to the QRRHO of S. Grimme
Chem.Eur.J. 2012 18 9955 using a reference frequency of 100.0 cm-1


-------
ENTROPY
-------

The entropy contributions are T*S = T*(S(el)+S(vib)+S(rot)+S(trans))
     S(el)   - electronic entropy
     S(vib)  - vibrational entropy
     S(rot)  - rotational entropy
     S(trans)- translational entropy
The entropies will be listed as multiplied by the temperature to get
units of energy

Electronic entropy                ...      0.00000000 Eh      0.00 kcal/mol
Vibrational entropy               ...      0.00070943 Eh      0.45 kcal/mol
Rotational entropy                ...      0.00902015 Eh      5.66 kcal/mol
Translational entropy             ...      0.01725935 Eh     10.83 kcal/mol
-----------------------------------------------------------------------
Final entropy term                ...      0.02698893 Eh     16.94 kcal/mol

In case the symmetry of your molecule has not been determined correctly
or in case you have a reason to use a different symmetry number we print 
out the resulting rotational entropy values for sn=1,12:

 non-linear molecules -----------------------------------
|  sn= 1 | S(rot)=       0.00902015 Eh      5.66 kcal/mol|
|  sn= 2 | S(rot)=       0.00836569 Eh      5.25 kcal/mol|
|  sn= 3 | S(rot)=       0.00798286 Eh      5.01 kcal/mol|
|  sn= 4 | S(rot)=       0.00771124 Eh      4.84 kcal/mol|
|  sn= 5 | S(rot)=       0.00750055 Eh      4.71 kcal/mol|
|  sn= 6 | S(rot)=       0.00732841 Eh      4.60 kcal/mol|
|  sn= 7 | S(rot)=       0.00718286 Eh      4.51 kcal/mol|
|  sn= 8 | S(rot)=       0.00705678 Eh      4.43 kcal/mol|
|  sn= 9 | S(rot)=       0.00694557 Eh      4.36 kcal/mol|
|  sn=10 | S(rot)=       0.00684609 Eh      4.30 kcal/mol|
|  sn=11 | S(rot)=       0.00675610 Eh      4.24 kcal/mol|
|  sn=12 | S(rot)=       0.00667395 Eh      4.19 kcal/mol|
 linear molecules ---------------------------------------
|  Dinfh | S(rot)=       0.00553340 Eh      3.47 kcal/mol|
|  Cinfv | S(rot)=       0.00618785 Eh      3.88 kcal/mol|
 --------------------------------------------------------


-------------------
GIBBS FREE ENERGY
-------------------

The Gibbs free energy is G = H - T*S

Total enthalpy                    ...   -115.51298297 Eh 
Total entropy correction          ...     -0.02698893 Eh    -16.94 kcal/mol
-----------------------------------------------------------------------
Final Gibbs free energy         ...   -115.53997189 Eh

For completeness - the Gibbs free energy minus the electronic energy
G-E(el)                           ...      0.02822199 Eh     17.71 kcal/mol


Maximum memory used throughout the entire PROP-calculation: 25.8 MB

--------------------------------
SUGGESTED CITATIONS FOR THIS RUN
--------------------------------

Below you find a list of papers that are relevant to this ORCA run
We neither can nor want to force you to cite these papers, but we appreciate if you do
You receive ORCA, which is the product of decades of hard work by many enthusiastic individuals, for free
The only thing we kindly ask in return is that you cite our papers,
We deeply appreciate it, if you show your appreciation for ORCA by not just citing the generic ORCA reference.

Please note that relegating all ORCA citations to the supporting information does *not* help us.
SI sections are not indexed - citations you put there will not count into any citation statistics
But we need these citations in order to attract the funding resources that allow us to do what we are doing

Therefore, if you are a happy ORCA user, please consider citing a few of the papers listed below in the main body of your paper

In addition to the list printed below, the program has created the file molecule.bibtex that contains the list in bibtex format
You can import this file easily into all common literature databanks and citation aid programs


List of essential papers. We consider these as the minimum necessary citations

  1. Neese,F.
     Software update: the ORCA program system, version 5.0
     WIRES Comput. Molec. Sci., 2022 12(1)e1606
     doi.org/10.1002/wcms.1606

List of papers to cite with high priority. The work reported in these papers was absolutely
necessary for this run to complete.
Our perspective: the developers of density functionals and basis sets usually get cited in chemistry papers
Good! But without the algorithms to do something with them, the functionals or basis sets would not do anything.
Hence, in our opinion, the algorithm design and method developments papers are equally worthy of getting cited

  1. Neese,F.
     An improvement of the resolution of the identity approximation for the formation of the Coulomb matrix
     J. Comp. Chem., 2003 24(14)1740-1747
     doi.org/10.1002/jcc.10318
  2. Neese,F.; Wennmohs,F.; Hansen,A.; Becker,U.
     Efficient, approximate and parallel Hartree-Fock and hybrid DFT calculations. A 'chain-of-spheres' algorithm for the Hartree-Fock exchange
     Chem. Phys., 2009 356(1-3)98-109
     doi.org/10.1016/j.chemphys.2008.10.036
  3. Bykov,D.; Petrenko,T.; Izsak,R.; Kossmann,S.; Becker,U.; Valeev,E.; Neese,F.
     Efficient implementation of the analytic second derivatives of Hartree-Fock and hybrid DFT energies: a detailed analysis of different approximations
     Molec. Phys., 2015 113 1961-1977
     doi.org/10.1080/00268976.2015.1025114
  4. Helmich-Paris,B.; de Souza,B.; Neese,F.; Izsák,R.
     An improved chain of spheres for exchange algorithm
     J. Chem. Phys., 2021 155 104109
     doi.org/doi: 10.1063/5.0058766.
  5. Neese,F.
     The SHARK Integral Generation and Digestion System
     J. Comp. Chem., 2022  1-16
     doi.org/10.1002/jcc.26942
  6. Caldeweyher,E.; Bannwarth,C.; Grimme,S.
     Extension of the D3 dispersion coefficient model
     J. Chem. Phys., 2017 147 034112-XXXX
     doi.org/10.1063/1.4993215
  7. Caldeweyher,E.; Ehlert,S.; Hansen,A.; Neugebauer,H.; Spicher,S.; Bannwarth,C.; Grimme,S.
     A generally applicable atomic-charge dependent London dispersion correction
     J. Chem. Phys., 2019 150 154122-XXXX
     doi.org/10.1063/1.5090222
  8. Caldeweyher,E.; Mewes,J.; Ehlert,S.; Grimme,S.
     Extension and evaluation of the D4 London-dispersion model for periodic systems
     Phys. Chem. Chem. Phys., 2020 22(16)8499-8512
     doi.org/10.1039/D0CP00502A

List of suggested additional citations. These are papers that are important in the 'surrounding' of 
of this run, or papers that preceded the highly important papers. If you like your results we are grateful for a citation.

  1. Izsak,R.; Neese,F.
     An overlap fitted chain of spheres exchange method
     J. Chem. Phys., 2011 135 144105
     doi.org/10.1063/1.3646921
  2. Izsak,R.; Hansen,A.; Neese,F.
     The resolution of identity and chain of spheres approximations for the LPNO-CCSD singles Fock term
     Molec. Phys., 2012 110 2413-2417
     doi.org/10.1080/00268976.2012.687466
  3. Neese,F.
     The ORCA program system
     WIRES Comput. Molec. Sci., 2012 2(1)73-78
     doi.org/10.1002/wcms.81
  4. Izsak,R.; Neese,F.; Klopper,W.
     Robust fitting techniques in the chain of spheres approximation to the Fock exchange: The role of the complementary space
     J. Chem. Phys., 2013 139 
     doi.org/10.1063/1.4819264
  5. Neese,F.
     Software update: the ORCA program system, version 4.0
     WIRES Comput. Molec. Sci., 2018 8(1)1-6
     doi.org/10.1002/wcms.1327
  6. Neese,F.; Wennmohs,F.; Becker,U.; Riplinger,C.
     The ORCA quantum chemistry program package
     J. Chem. Phys., 2020 152 Art. No. L224108
     doi.org/10.1063/5.0004608

List of optional additional citations

  1. Neese,F.
     Approximate second-order SCF convergence for spin unrestricted wavefunctions
     Chem. Phys. Lett., 2000 325(1-3)93-98
     doi.org/10.1016/s0009-2614(00)00662-x

Timings for individual modules:

Sum of individual times          ...       38.089 sec (=   0.635 min)
Startup calculation              ...        1.853 sec (=   0.031 min)   4.9 %
SCF iterations                   ...       12.303 sec (=   0.205 min)  32.3 %
Property integrals               ...        2.849 sec (=   0.047 min)   7.5 %
SCF Response                     ...        2.362 sec (=   0.039 min)   6.2 %
Property calculations            ...       10.569 sec (=   0.176 min)  27.7 %
SCF Gradient evaluation          ...        8.076 sec (=   0.135 min)  21.2 %
Geometry relaxation              ...        0.076 sec (=   0.001 min)   0.2 %
                             ****ORCA TERMINATED NORMALLY****
TOTAL RUN TIME: 0 days 0 hours 0 minutes 39 seconds 971 msec
