
                                 *****************
                                 * O   R   C   A *
                                 *****************

                                            #,                                       
                                            ###                                      
                                            ####                                     
                                            #####                                    
                                            ######                                   
                                           ########,                                 
                                     ,,################,,,,,                         
                               ,,#################################,,                 
                          ,,##########################################,,             
                       ,#########################################, ''#####,          
                    ,#############################################,,   '####,        
                  ,##################################################,,,,####,       
                ,###########''''           ''''###############################       
              ,#####''   ,,,,##########,,,,          '''####'''          '####       
            ,##' ,,,,###########################,,,                        '##       
           ' ,,###''''                  '''############,,,                           
         ,,##''                                '''############,,,,        ,,,,,,###''
      ,#''                                            '''#######################'''  
     '                                                          ''''####''''         
             ,#######,   #######,   ,#######,      ##                                
            ,#'     '#,  ##    ##  ,#'     '#,    #''#        ,####,   ,####,        
            ##       ##  ##   ,#'  ##            #'  '#       #'       #'  '#        
            ##       ##  #######   ##           ,######,      #####,   #    #        
            '#,     ,#'  ##    ##  '#,     ,#' ,#      #,     #,   #   #,  ,#        
             '#######'   ##     ##  '#######'  #'      '#     '####' # '####'        



                #########################################################
                #                        -***-                          #
                #          Department of theory and spectroscopy        #
                #                                                       #
                #                      Frank Neese                      #
                #                                                       #
                #     Directorship, Architecture, Infrastructure        #
                #                    SHARK, DRIVERS                     #
                #        Core code/Algorithms in most modules           #
                #                                                       #
                #        Max Planck Institute fuer Kohlenforschung      #
                #                Kaiser Wilhelm Platz 1                 #
                #                 D-45470 Muelheim/Ruhr                 #
                #                      Germany                          #
                #                                                       #
                #                  All rights reserved                  #
                #                        -***-                          #
                #########################################################


                         Program Version 6.0.0  -   RELEASE  -


 With contributions from (in alphabetic order):
   Daniel Aravena         : Magnetic Suceptibility
   Michael Atanasov       : Ab Initio Ligand Field Theory (pilot matlab implementation)
   Alexander A. Auer      : GIAO ZORA, VPT2 properties, NMR spectrum
   Ute Becker             : All parallelization in ORCA, NUMFREQ, NUMCALC
   Giovanni Bistoni       : ED, misc. LED, open-shell LED, HFLD
   Martin Brehm           : Molecular dynamics
   Dmytro Bykov           : pre 5.0 version of the SCF Hessian
   Marcos Casanova-Páez   : Triplet and SCS-CIS(D). UHF-(DLPNO)-IP/EA/STEOM-CCSD. UHF-CVS-IP/STEOM-CCSD
   Vijay G. Chilkuri      : MRCI spin determinant printing, contributions to CSF-ICE
   Pauline Colinet        : FMM embedding
   Dipayan Datta          : RHF DLPNO-CCSD density
   Achintya Kumar Dutta   : EOM-CC, STEOM-CC
   Nicolas Foglia         : Exact transition moments, OPA infrastructure, MCD improvements
   Dmitry Ganyushin       : Spin-Orbit,Spin-Spin,Magnetic field MRCI
   Miquel Garcia          : C-PCM and meta-GGA Hessian, CCSD/C-PCM, Gaussian charge scheme
   Tiago L. C. Gouveia    : GS-ROHF, GS-ROCIS
   Yang Guo               : DLPNO-NEVPT2, F12-NEVPT2, CIM, IAO-localization
   Andreas Hansen         : Spin unrestricted coupled pair/coupled cluster methods
   Ingolf Harden          : AUTO-CI MPn and infrastructure 
   Benjamin Helmich-Paris : MC-RPA, TRAH-(SCF,CASSCF), AVAS, COSX integrals, SCF dyn. polar.
   Lee Huntington         : MR-EOM, pCC
   Robert Izsak           : Overlap fitted RIJCOSX, COSX-SCS-MP3, EOM
   Riya Kayal             : Wick's Theorem for AUTO-CI, AUTO-CI UHF-CCSDT
   Emily Kempfer          : AUTO-CI, RHF CISDT and CCSDT
   Christian Kollmar      : KDIIS, OOCD, Brueckner-CCSD(T), CCSD density, CASPT2, CASPT2-K, improved NEVPT2
   Axel Koslowski         : Symmetry handling
   Simone Kossmann        : Meta GGA functionals, TD-DFT gradient, OOMP2, (MP2 Hessian; deprecated post 5.0)
   Lucas Lang             : DCDCAS
   Marvin Lechner         : AUTO-CI (C++ implementation), FIC-MRCC
   Spencer Leger          : CASSCF response
   Dagmar Lenk            : GEPOL surface, SMD, ORCA-2-JSON
   Dimitrios Liakos       : Extrapolation schemes; Compound Job, initial MDCI parallelization
   Dimitrios Manganas     : Further ROCIS development; embedding schemes. LFT, Crystal Embedding
   Dimitrios Pantazis     : SARC Basis sets
   Anastasios Papadopoulos: AUTO-CI, single reference methods and gradients
   Taras Petrenko         : pre 6.0 DFT Hessian and TD-DFT gradient, (ASA, deprecated), ECA, 1-Electron XAS/XES, NRVS
   Peter Pinski           : DLPNO-MP2, DLPNO-MP2 Gradient
   Christoph Reimann      : Effective Core Potentials
   Marius Retegan         : Local ZFS, SOC
   Christoph Riplinger    : Optimizer, TS searches, QM/MM, DLPNO-CCSD(T), (RO)-DLPNO pert. Triples
   Michael Roemelt        : Original ROCIS implementation
   Masaaki Saitow         : Open-shell DLPNO-CCSD energy and density
   Barbara Sandhoefer     : DKH picture change effects
   Kantharuban Sivalingam : CASSCF convergence/infrastructure, NEVPT2 and variants, FIC-MRCI
   Bernardo de Souza      : ESD, SOC TD-DFT
   Georgi Stoychev        : AutoAux, RI-MP2 NMR, DLPNO-MP2 response, X2C
   Van Anh Tran           : RI-MP2 g-tensors
   Willem Van den Heuvel  : Paramagnetic NMR
   Zikuan Wang            : NOTCH, Electric field optimization 
   Frank Wennmohs         : Technical directorship and infrastructure
   Hang Xu                : AUTO-CI-Response properties 


 We gratefully acknowledge several colleagues who have allowed us to
 interface, adapt or use parts of their codes:
   Stefan Grimme, W. Hujo, H. Kruse, P. Pracht,  : VdW corrections, initial TS optimization,
                  C. Bannwarth, S. Ehlert,         DFT functionals, gCP, sTDA/sTD-DF
                  L. Wittmann, M. Mueller
   Ed Valeev, F. Pavosevic, A. Kumar             : LibInt (2-el integral package), F12 methods
   Garnet Chan, S. Sharma, J. Yang, R. Olivares  : DMRG
   Ulf Ekstrom                                   : XCFun DFT Library
   Mihaly Kallay                                 : mrcc  (arbitrary order and MRCC methods)
   Frank Weinhold                                : gennbo (NPA and NBO analysis)
   Simon Mueller                                 : openCOSMO-RS
   Christopher J. Cramer and Donald G. Truhlar   : smd solvation model
   Lars Goerigk                                  : TD-DFT with DH, B97 family of functionals
   V. Asgeirsson, H. Jonsson                     : NEB implementation
   FAccTs GmbH                                   : IRC, NEB, NEB-TS, DLPNO-Multilevel, CI-OPT
                                                   MM, QMMM, 2- and 3-layer-ONIOM, Crystal-QMMM,
                                                   LR-CPCM, SF, NACMEs, symmetry and pop. for TD-DFT,
                                                   nearIR, NL-DFT gradient (VV10), updates on ESD,
                                                   ML-optimized integration grids, MBIS, APM,
                                                   GOAT, DOCKER, SOLVATOR, interface openCOSMO-RS
   S Lehtola, MJT Oliveira, MAL Marques          : LibXC Library
   Liviu Ungur et al                             : ANISO software


 Your calculation uses the libint2 library for the computation of 2-el integrals
 For citations please refer to: http://libint.valeyev.net

 Your ORCA version has been built with support for libXC version: 6.2.2
 For citations please refer to: https://libxc.gitlab.io

 This ORCA versions uses:
   CBLAS   interface :  Fast vector & matrix operations
   LAPACKE interface :  Fast linear algebra routines
   SCALAPACK package :  Parallel linear algebra routines
   Shared memory     :  Shared parallel matrices
   BLAS/LAPACK       :  OpenBLAS 0.3.27  USE64BITINT DYNAMIC_ARCH NO_AFFINITY Cooperlake SINGLE_THREADED
        Core in use  :  Cooperlake
   Copyright (c) 2011-2014, The OpenBLAS Project


Your calculation utilizes the atom-pairwise dispersion correction
based on EEQ partial charges (D4)


Warning: RI is on but no J-basis has been assigned. Assigning Def2/J (nothing to worry about!)
================================================================================

----- Orbital basis set information -----
Your calculation utilizes the basis: def2-TZVP
   F. Weigend and R. Ahlrichs, Phys. Chem. Chem. Phys. 7, 3297 (2005).

----- AuxJ basis set information -----
Your calculation utilizes the auxiliary basis: def2/J
   F. Weigend, Phys. Chem. Chem. Phys. 8, 1057 (2006).

================================================================================
                                        WARNINGS
                       Please study these warnings very carefully!
================================================================================


WARNING: Geometry Optimization
  ===> : Switching off AutoStart
         For restart on a previous wavefunction, please use MOREAD

WARNING: Found SCFConvIgnored == true
  ===> : Will try to continue after any unconverged SCF -
         no matter how far from convergence the wavefunction might be.

         Please be very careful with your results!


================================================================================
                                       INPUT FILE
================================================================================
NAME = molecule.inp
|  1> # ORCA Input File generated by Ophysia
|  2> ! PBE0 D4 def2-TZVP OPT FREQ GOAT
|  3> ! TightSCF
|  4> * xyz 0 1
|  5> O          1.05915        0.05093        0.05394
|  6> H          2.02704        0.06775        0.01066
|  7> H          0.78030        0.38726       -0.81098
|  8> **                         ****END OF INPUT****
================================================================================

                       *****************************
                       * Geometry Optimization Run *
                       *****************************


                       *********************************
                       *              GOAT             *
                       * Global Optimization Algorithm *
                       *********************************

Geometry optimization settings:
Update method            Update   .... BFGS
Choice of coordinates    CoordSys .... (2022) Redundant Internals
Initial Hessian          InHess   .... Almloef's Model
Max. no of cycles        MaxIter  .... 50

Convergence Tolerances:
Energy Change            TolE     ....  5.0000e-06 Eh
Max. Gradient            TolMAXG  ....  3.0000e-04 Eh/bohr
RMS Gradient             TolRMSG  ....  1.0000e-04 Eh/bohr
Max. Displacement        TolMAXD  ....  4.0000e-03 bohr
RMS Displacement         TolRMSD  ....  2.0000e-03 bohr
Strict Convergence                .... True

------------------------------------------------------------------------------
                        ORCA OPTIMIZATION COORDINATE SETUP
------------------------------------------------------------------------------

The optimization will be done in redundant internal coordinates (2022)
Making redundant internal coordinates   ...  (2022 redundants) done
Evaluating the initial hessian          ...  (Almloef) done
Evaluating the coordinates              ...  done
Calculating the B-matrix                .... done
Calculating the G-matrix                .... done
Diagonalizing the G-matrix              .... done
The first mode is                       ....    0
The number of degrees of freedom        ....    3

    -----------------------------------------------------------------
                    Redundant Internal Coordinates


    -----------------------------------------------------------------
         Definition                    Initial Value    Approx d2E/dq
    -----------------------------------------------------------------
      1. B(H   1,O   0)                  0.9690         0.503040   
      2. B(H   2,O   0)                  0.9690         0.503045   
      3. A(H   1,O   0,H   2)          103.9779         0.318374   
    -----------------------------------------------------------------

Number of atoms                         .... 3
Number of degrees of freedom            .... 3


         *************************************************************
         *                GEOMETRY OPTIMIZATION CYCLE   1            *
         *************************************************************
---------------------------------
CARTESIAN COORDINATES (ANGSTROEM)
---------------------------------
  O      1.059150    0.050930    0.053940
  H      2.027040    0.067750    0.010660
  H      0.780300    0.387260   -0.810980

----------------------------
CARTESIAN COORDINATES (A.U.)
----------------------------
  NO LB      ZA    FRAG     MASS         X           Y           Z
   0 O     8.0000    1    15.999    2.001503    0.096244    0.101932
   1 H     1.0000    1     1.008    3.830550    0.128029    0.020144
   2 H     1.0000    1     1.008    1.474553    0.731815   -1.532530

----------------------------------------------
CARTESIAN COORDINATES OF FRAGMENTS (ANGSTROEM)
----------------------------------------------

 FRAGMENT 1 
  O     1.059150    0.050930    0.053940
  H     2.027040    0.067750    0.010660
  H     0.780300    0.387260   -0.810980

--------------------------------
INTERNAL COORDINATES (ANGSTROEM)
--------------------------------
 O      0   0   0     0.000000000000     0.00000000     0.00000000
 H      1   0   0     0.969003159386     0.00000000     0.00000000
 H      1   2   0     0.969000411661   103.97794340     0.00000000

---------------------------
INTERNAL COORDINATES (A.U.)
---------------------------
 O      0   0   0     0.000000000000     0.00000000     0.00000000
 H      1   0   0     1.831150594144     0.00000000     0.00000000
 H      1   2   0     1.831145401697   103.97794340     0.00000000

---------------------
BASIS SET INFORMATION
---------------------
There are 2 groups of distinct atoms

 Group   1 Type O   : 11s6p2d1f contracted to 5s3p2d1f pattern {62111/411/11/1}
 Group   2 Type H   : 5s1p contracted to 3s1p pattern {311/1}

Atom   0O    basis set group =>   1
Atom   1H    basis set group =>   2
Atom   2H    basis set group =>   2
---------------------------------
AUXILIARY/J BASIS SET INFORMATION
---------------------------------
There are 2 groups of distinct atoms

 Group   1 Type O   : 12s5p4d2f1g contracted to 6s4p3d1f1g pattern {711111/2111/211/2/1}
 Group   2 Type H   : 5s2p1d contracted to 3s1p1d pattern {311/2/1}

Atom   0O    basis set group =>   1
Atom   1H    basis set group =>   2
Atom   2H    basis set group =>   2
------------------------------------------------------------------------------
                             ORCA STARTUP CALCULATIONS
                           -- RI-GTO INTEGRALS CHOSEN --
------------------------------------------------------------------------------
------------------------------------------------------------------------------
                   ___                                                        
                  /   \      - P O W E R E D   B Y -                         
                 /     \                                                     
                 |  |  |   _    _      __       _____    __    __             
                 |  |  |  | |  | |    /  \     |  _  \  |  |  /  |          
                  \  \/   | |  | |   /    \    | | | |  |  | /  /          
                 / \  \   | |__| |  /  /\  \   | |_| |  |  |/  /          
                |  |  |   |  __  | /  /__\  \  |    /   |      \           
                |  |  |   | |  | | |   __   |  |    \   |  |\   \          
                \     /   | |  | | |  |  |  |  | |\  \  |  | \   \       
                 \___/    |_|  |_| |__|  |__|  |_| \__\ |__|  \__/        
                                                                              
                      - O R C A' S   B I G   F R I E N D -                    
                                      &                                       
                       - I N T E G R A L  F E E D E R -                       
                                                                              
 v1 FN, 2020, v2 2021, v3 2022-2024                                           
------------------------------------------------------------------------------


----------------------
SHARK INTEGRAL PACKAGE
----------------------

Number of atoms                             ...      3
Number of basis functions                   ...     43
Number of shells                            ...     19
Maximum angular momentum                    ...      3
Integral batch strategy                     ... SHARK/LIBINT Hybrid
RI-J (if used) integral strategy            ... SPLIT-RIJ (Revised 2003 algorithm where possible)
Printlevel                                  ...      1
Contraction scheme used                     ... SEGMENTED contraction
Prescreening option                         ... SCHWARTZ
   Thresh                                   ... 2.500e-11
   Tcut                                     ... 2.500e-12
   Tpresel                                  ... 2.500e-12 
Coulomb Range Separation                    ... NOT USED
Exchange Range Separation                   ... NOT USED
Multipole approximations                    ... NOT USED
Finite Nucleus Model                        ... NOT USED
CABS basis                                  ... NOT available
Auxiliary Coulomb fitting basis             ... AVAILABLE
   # of basis functions in Aux-J            ...     71
   # of shells in Aux-J                     ...     25
   Maximum angular momentum in Aux-J        ...      4
Auxiliary J/K fitting basis                 ... NOT available
Auxiliary Correlation fitting basis         ... NOT available
Auxiliary 'external' fitting basis          ... NOT available

Checking pre-screening integrals            ... done (  0.0 sec) Dimension = 19
Check shell pair data                       ... done (  0.0 sec)
Shell pair information
Shell pair cut-off parameter TPreSel        ...   2.5e-12
Total number of shell pairs                 ...       190
Shell pairs after pre-screening             ...       190
Total number of primitive shell pairs       ...       556
Primitive shell pairs kept                  ...       535
          la=0 lb=0:     66 shell pairs
          la=1 lb=0:     55 shell pairs
          la=1 lb=1:     15 shell pairs
          la=2 lb=0:     22 shell pairs
          la=2 lb=1:     10 shell pairs
          la=2 lb=2:      3 shell pairs
          la=3 lb=0:     11 shell pairs
          la=3 lb=1:      5 shell pairs
          la=3 lb=2:      2 shell pairs
          la=3 lb=3:      1 shell pairs

Calculating one electron integrals          ... done (  0.0 sec)
Calculating RI/J V-Matrix + Cholesky decomp.... done (  0.0 sec)
Calculating Nuclear repulsion               ... done (  0.0 sec) ENN=      9.084249100183 Eh

Diagonalization of the overlap matrix:
Smallest eigenvalue                        ... 8.726e-03
Time for diagonalization                   ...    0.000 sec
Threshold for overlap eigenvalues          ... 1.000e-07
Number of eigenvalues below threshold      ... 0
Time for construction of square roots      ...    0.003 sec
Total time needed                          ...    0.006 sec

-------------------
DFT GRID GENERATION
-------------------

General Integration Accuracy     IntAcc      ... 4.388
Radial Grid Type                 RadialGrid  ... OptM3 with GC (2021)
Angular Grid (max. ang.)         AngularGrid ... 4 (Lebedev-302)
Angular grid pruning method      GridPruning ... 4 (adaptive)
Weight generation scheme         WeightScheme... mBecke (2022)
Basis function cutoff            BFCut       ... 1.0000e-11
Integration weight cutoff        WCut        ... 1.0000e-14
Partially contracted basis set               ... off
Rotationally invariant grid construction     ... off
Angular grids for H and He will be reduced by one unit

Total number of grid points                  ...    12747
Total number of batches                      ...      201
Average number of points per batch           ...       63
Average number of grid points per atom       ...     4249

--------------------
COSX GRID GENERATION
--------------------

GRIDX 1
-------
General Integration Accuracy     IntAcc      ... 3.816
Radial Grid Type                 RadialGrid  ... OptM3 with GC (2021)
Angular Grid (max. ang.)         AngularGrid ... 1 (Lebedev-50)
Angular grid pruning method      GridPruning ... 4 (adaptive)
Weight generation scheme         WeightScheme... mBecke (2022)
Basis function cutoff            BFCut       ... 1.0000e-11
Integration weight cutoff        WCut        ... 1.0000e-14
Partially contracted basis set               ... on
Rotationally invariant grid construction     ... off
Angular grids for H and He will be reduced by one unit

Total number of grid points                  ...     1657
Total number of batches                      ...       14
Average number of points per batch           ...      118
Average number of grid points per atom       ...      552
UseSFitting                                  ... on

GRIDX 2
-------
General Integration Accuracy     IntAcc      ... 4.020
Radial Grid Type                 RadialGrid  ... OptM3 with GC (2021)
Angular Grid (max. ang.)         AngularGrid ... 2 (Lebedev-110)
Angular grid pruning method      GridPruning ... 4 (adaptive)
Weight generation scheme         WeightScheme... mBecke (2022)
Basis function cutoff            BFCut       ... 1.0000e-11
Integration weight cutoff        WCut        ... 1.0000e-14
Partially contracted basis set               ... on
Rotationally invariant grid construction     ... off
Angular grids for H and He will be reduced by one unit

Total number of grid points                  ...     3500
Total number of batches                      ...       30
Average number of points per batch           ...      116
Average number of grid points per atom       ...     1167
UseSFitting                                  ... on

GRIDX 3
-------
General Integration Accuracy     IntAcc      ... 4.338
Radial Grid Type                 RadialGrid  ... OptM3 with GC (2021)
Angular Grid (max. ang.)         AngularGrid ... 3 (Lebedev-194)
Angular grid pruning method      GridPruning ... 4 (adaptive)
Weight generation scheme         WeightScheme... mBecke (2022)
Basis function cutoff            BFCut       ... 1.0000e-11
Integration weight cutoff        WCut        ... 1.0000e-14
Partially contracted basis set               ... on
Rotationally invariant grid construction     ... off
Angular grids for H and He will be reduced by one unit

Total number of grid points                  ...     7780
Total number of batches                      ...       62
Average number of points per batch           ...      125
Average number of grid points per atom       ...     2593
UseSFitting                                  ... on
Initializing property integral containers    ... done (  0.0 sec)

SHARK setup successfully completed in   0.2 seconds

Maximum memory used throughout the entire STARTUP-calculation: 13.7 MB
-------------------------------------------------------------------------------
                                 ORCA GUESS
                   Start orbitals & Density for SCF / CASSCF
-------------------------------------------------------------------------------

------------
SCF SETTINGS
------------
Hamiltonian:
 Density Functional     Method          .... DFT(GTOs)
 Exchange Functional    Exchange        .... PBE
   PBE kappa parameter   XKappa         ....  0.804000
   PBE mue parameter    XMuePBE         ....  0.219520
 Correlation Functional Correlation     .... PBE
   PBE beta parameter  CBetaPBE         ....  0.066725
 LDA part of GGA corr.  LDAOpt          .... PW91-LDA
 Gradients option       PostSCFGGA      .... off
 Hybrid DFT is turned on
   Fraction HF Exchange ScalHFX         ....  0.250000
   Scaling of DF-GGA-X  ScalDFX         ....  0.750000
   Scaling of DF-GGA-C  ScalDFC         ....  1.000000
   Scaling of DF-LDA-C  ScalLDAC        ....  1.000000
   Perturbative correction              ....  0.000000
   NL short-range parameter             ....  6.900000
 RI-approximation to the Coulomb term is turned on
   Number of AuxJ basis functions       .... 71
   RIJ-COSX (HFX calculated with COS-X)).... on


General Settings:
 Integral files         IntName         .... molecule
 Hartree-Fock type      HFTyp           .... RHF
 Total Charge           Charge          ....    0
 Multiplicity           Mult            ....    1
 Number of Electrons    NEL             ....   10
 Basis Dimension        Dim             ....   43
 Nuclear Repulsion      ENuc            ....      9.0842491002 Eh

Convergence Acceleration:
 AO-DIIS                CNVDIIS         .... on
   Start iteration      DIISMaxIt       ....    12
   Startup error        DIISStart       ....  0.200000
   # of expansion vecs  DIISMaxEq       ....     5
   Bias factor          DIISBfac        ....   1.050
   Max. coefficient     DIISMaxC        ....  10.000
 MO-DIIS                CNVKDIIS        .... off
 Trust-Rad. Augm. Hess. CNVTRAH         .... auto
   Auto Start mean grad. ratio tolernc. ....  1.125000
   Auto Start start iteration           ....    50
   Auto Start num. interpolation iter.  ....    10
   Max. Number of Micro iterations      ....    24
   Max. Number of Macro iterations      .... Maxiter - #DIIS iter
   Number of Davidson start vectors     ....     2
   Converg. threshold    (grad. norm)   ....   1.000e-05
   Grad. Scal. Fac. for Micro threshold ....   0.100
   Minimum threshold for Micro iter.    ....   1.000e-02
   NR start threshold (gradient norm)   ....   1.000e-04
   Initial trust radius                 ....   0.400
   Minimum AH scaling param. (alpha)    ....   1.000
   Maximum AH scaling param. (alpha)    .... 1000.000
   Quad. conv. algorithm                .... NR
   White noise on init. David. guess    .... on
   Maximum white noise                  ....   0.010
   Pseudo random numbers                .... off
   Inactive MOs                         .... canonical
   Orbital update algorithm             .... Taylor
   Preconditioner                       .... Diag
   Full preconditioner red. dimension   ....   250
 SOSCF                  CNVSOSCF        .... on
   Start iteration      SOSCFMaxIt      ....   150
   Startup grad/error   SOSCFStart      ....  0.003300
   Hessian update       SOSCFHessUp     .... L-BFGS
 Level Shifting         CNVShift        .... on
   Level shift para.    LevelShift      ....    0.2500
   Turn off err/grad.   ShiftErr        ....    0.0010
 Zerner damping         CNVZerner       .... off
 Static damping         CNVDamp         .... on
   Fraction old density DampFac         ....    0.7000
   Max. Damping (<1)    DampMax         ....    0.9800
   Min. Damping (>=0)   DampMin         ....    0.0000
   Turn off err/grad.   DampErr         ....    0.1000

SCF Procedure:
 Maximum # iterations   MaxIter         ....   125
 SCF integral mode      SCFMode         .... Direct
   Integral package                     .... SHARK and LIBINT hybrid scheme
 Reset frequency        DirectResetFreq ....    20
 Integral Threshold     Thresh          ....  2.500e-11 Eh
 Primitive CutOff       TCut            ....  2.500e-12 Eh

Convergence Tolerance:
 Convergence Check Mode ConvCheckMode   .... Total+1el-Energy
 Convergence forced     ConvForced      .... -1
 Energy Change          TolE            ....  1.000e-08 Eh
 1-El. energy change                    ....  1.000e-05 Eh
 Orbital Gradient       TolG            ....  1.000e-05
 Orbital Rotation angle TolX            ....  1.000e-05
 DIIS Error             TolErr          ....  5.000e-07

------------------------------
INITIAL GUESS: MODEL POTENTIAL
------------------------------
Loading Hartree-Fock densities                     ... done
Calculating cut-offs                               ... done
Initializing the effective Hamiltonian             ... done
Setting up the integral package (SHARK)            ... done
Starting the Coulomb interaction                   ... done (   0.0 sec)
Making the grid                                    ... done (   0.0 sec)
Mapping shells                                     ... done
Starting the XC term evaluation                    ... done (   0.0 sec)
  promolecular density results
     # of electrons  =      9.999121732
     EX              =     -8.726418817
     EC              =     -0.315821010
     EX+EC           =     -9.042239827
Transforming the Hamiltonian                       ... done (   0.0 sec)
Diagonalizing the Hamiltonian                      ... done (   0.0 sec)
Back transforming the eigenvectors                 ... done (   0.0 sec)
Now organizing SCF variables                       ... done
                      ------------------
                      INITIAL GUESS DONE (   0.2 sec)
                      ------------------
             **** ENERGY FILE WAS UPDATED (molecule.en.tmp) ****
Finished Guess after   0.2 sec
Maximum memory used throughout the entire GUESS-calculation: 7.0 MB

-------------------------------------------------------------------------------------------
                                      ORCA LEAN-SCF
                              memory conserving SCF solver
-------------------------------------------------------------------------------------------

----------------------------------------D-I-I-S--------------------------------------------
Iteration    Energy (Eh)           Delta-E    RMSDP     MaxDP     DIISErr   Damp  Time(sec)
-------------------------------------------------------------------------------------------
               ***  Starting incremental Fock matrix formation  ***
    1    -76.2845353460411957     0.00e+00  5.11e-03  4.95e-02  3.22e-01  0.700   0.2
    2    -76.3305188654008901    -4.60e-02  3.08e-03  2.96e-02  1.34e-01  0.700   0.1
                               ***Turning on AO-DIIS***
    3    -76.3456217785629008    -1.51e-02  8.36e-04  6.23e-03  3.11e-02  0.700   0.2
    4    -76.3551793241013002    -9.56e-03  9.17e-04  7.38e-03  1.29e-02  0.000   0.1
    5    -76.3772786866139910    -2.21e-02  2.82e-04  2.57e-03  5.78e-03  0.000   0.2
                              *** Initializing SOSCF ***
---------------------------------------S-O-S-C-F--------------------------------------
Iteration    Energy (Eh)           Delta-E    RMSDP     MaxDP     MaxGrad    Time(sec)
--------------------------------------------------------------------------------------
    6    -76.3773192090954751    -4.05e-05  6.88e-05  5.86e-04  6.13e-04     0.3
               *** Restarting incremental Fock matrix formation ***
    7    -76.3773129327927478     6.28e-06  3.53e-05  3.54e-04  1.42e-04     0.2
    8    -76.3773130750168718    -1.42e-07  5.94e-06  4.25e-05  2.51e-05     0.2
    9    -76.3773130750054179     1.15e-11  1.89e-06  1.98e-05  2.91e-05     0.2
                 **** Energy Check signals convergence ****

               *****************************************************
               *                     SUCCESS                       *
               *           SCF CONVERGED AFTER   9 CYCLES          *
               *****************************************************

Recomputing exchange energy using gridx3       ... done (    0.101 sec)
Old exchange energy                            :     -2.231623344 Eh
New exchange energy                            :     -2.231612302 Eh
Exchange energy change after final integration :      0.000011042 Eh
Total energy after final integration           :    -76.377302033 Eh
             **** ENERGY FILE WAS UPDATED (molecule.en.tmp) ****

----------------
TOTAL SCF ENERGY
----------------

Total Energy       :        -76.37730203329765 Eh           -2078.33205 eV

Components:
Nuclear Repulsion  :          9.08424910018339 Eh             247.19499 eV
Electronic Energy  :        -85.46156217518880 Eh           -2325.52733 eV
One Electron Energy:       -122.90001123638250 Eh           -3344.27933 eV
Two Electron Energy:         37.43844906119369 Eh            1018.75199 eV

Virial components:
Potential Energy   :       -152.46102502194589 Eh           -4148.67541 eV
Kinetic Energy     :         76.08372298864823 Eh            2070.34336 eV
Virial Ratio       :          2.00385863142756

DFT components:
N(Alpha)           :        5.000000464827 electrons
N(Beta)            :        5.000000464827 electrons
N(Total)           :       10.000000929654 electrons
E(X)               :       -6.691198253660 Eh       
E(C)               :       -0.326690843917 Eh       
E(XC)              :       -7.017889097576 Eh       

---------------
SCF CONVERGENCE
---------------

  Last Energy change         ...   -1.1454e-11  Tolerance :   1.0000e-08
  Last MAX-Density change    ...    1.9778e-05  Tolerance :   1.0000e-07
  Last RMS-Density change    ...    1.8874e-06  Tolerance :   5.0000e-09
  Last DIIS Error            ...    6.1292e-04  Tolerance :   5.0000e-07
  Last Orbital Gradient      ...    2.9086e-05  Tolerance :   1.0000e-05
  Last Orbital Rotation      ...    1.5086e-05  Tolerance :   1.0000e-05


----------------
ORBITAL ENERGIES
----------------

  NO   OCC          E(Eh)            E(eV) 
   0   2.0000     -19.203645      -522.5577 
   1   2.0000      -1.035532       -28.1783 
   2   2.0000      -0.541250       -14.7282 
   3   2.0000      -0.403556       -10.9813 
   4   2.0000      -0.326265        -8.8781 
   5   0.0000       0.029610         0.8057 
   6   0.0000       0.104285         2.8377 
   7   0.0000       0.369442        10.0530 
   8   0.0000       0.423061        11.5121 
   9   0.0000       0.445208        12.1147 
  10   0.0000       0.453038        12.3278 
  11   0.0000       0.587007        15.9733 
  12   0.0000       0.611977        16.6527 
  13   0.0000       1.166039        31.7295 
  14   0.0000       1.196785        32.5662 
  15   0.0000       1.300863        35.3983 
*Only the first 10 virtual orbitals were printed.

                    ********************************
                    * MULLIKEN POPULATION ANALYSIS *
                    ********************************

-------------------------
MULLIKEN FRAGMENT CHARGES
-------------------------
 Fragment   0 :  -0.000000
Sum of fragment charges:   -0.0000000

---------------------------------
MULLIKEN FRAGMENT OVERLAP CHARGES
---------------------------------
                  0    
      0      11.154224

-----------------------
MULLIKEN ATOMIC CHARGES
-----------------------
   0 O :   -0.647053
   1 H :    0.323505
   2 H :    0.323549
Sum of atomic charges:   -0.0000000

--------------------------------
MULLIKEN REDUCED ORBITAL CHARGES
--------------------------------
  0 O s       :     3.815542  s :     3.815542
      pz      :     1.538088  p :     4.807694
      px      :     1.370436
      py      :     1.899170
      dz2     :     0.008681  d :     0.022499
      dxz     :     0.002008
      dyz     :     0.004298
      dx2y2   :     0.006463
      dxy     :     0.001049
      f0      :     0.000078  f :     0.001318
      f+1     :     0.000238
      f-1     :     0.000312
      f+2     :     0.000051
      f-2     :     0.000091
      f+3     :     0.000469
      f-3     :     0.000080

  1 H s       :     0.629213  s :     0.629213
      pz      :     0.012203  p :     0.047282
      px      :     0.018930
      py      :     0.016149

  2 H s       :     0.629173  s :     0.629173
      pz      :     0.018294  p :     0.047279
      px      :     0.011915
      py      :     0.017070



                     *******************************
                     * LOEWDIN POPULATION ANALYSIS *
                     *******************************

------------------------
LOEWDIN FRAGMENT CHARGES
------------------------
 Fragment   0 :  -0.000000

----------------------------
LOEWDIN FRAGMENT BOND ORDERS
----------------------------
                  0    
      0      14.503276

----------------------
LOEWDIN ATOMIC CHARGES
----------------------
   0 O :   -0.318536
   1 H :    0.159267
   2 H :    0.159269

-------------------------------
LOEWDIN REDUCED ORBITAL CHARGES
-------------------------------
  0 O s       :     3.472705  s :     3.472705
      pz      :     1.557459  p :     4.810826
      px      :     1.400037
      py      :     1.853330
      dz2     :     0.013349  d :     0.032640
      dxz     :     0.002567
      dyz     :     0.005120
      dx2y2   :     0.010943
      dxy     :     0.000660
      f0      :     0.000248  f :     0.002365
      f+1     :     0.000623
      f-1     :     0.000534
      f+2     :     0.000012
      f-2     :     0.000150
      f+3     :     0.000793
      f-3     :     0.000005

  1 H s       :     0.681988  s :     0.681988
      pz      :     0.032687  p :     0.158745
      px      :     0.081651
      py      :     0.044407

  2 H s       :     0.681984  s :     0.681984
      pz      :     0.076955  p :     0.158747
      px      :     0.030690
      py      :     0.051102



                      *****************************
                      * MAYER POPULATION ANALYSIS *
                      *****************************

  NA   - Mulliken gross atomic population
  ZA   - Total nuclear charge
  QA   - Mulliken gross atomic charge
  VA   - Mayer's total valence
  BVA  - Mayer's bonded valence
  FA   - Mayer's free valence

  ATOM       NA         ZA         QA         VA         BVA        FA
  0 O      8.6471     8.0000    -0.6471     1.8130     1.8130    -0.0000
  1 H      0.6765     1.0000     0.3235     0.9116     0.9116    -0.0000
  2 H      0.6765     1.0000     0.3235     0.9116     0.9116    -0.0000

  Mayer bond orders larger than 0.100000
B(  0-O ,  1-H ) :   0.9065 B(  0-O ,  2-H ) :   0.9065 

-------
TIMINGS
-------

Total SCF time: 0 days 0 hours 0 min 2 sec 

Total time                  ....       2.092 sec
Sum of individual times     ....       1.912 sec  ( 91.4%)

SCF preparation             ....       0.071 sec  (  3.4%)
Fock matrix formation       ....       1.240 sec  ( 59.3%)
  Startup                   ....       0.046 sec  (  3.7% of F)
  Split-RI-J                ....       0.092 sec  (  7.4% of F)
  Chain of spheres X        ....       0.700 sec  ( 56.4% of F)
  XC integration            ....       0.274 sec  ( 22.1% of F)
    Basis function eval.    ....       0.080 sec  ( 29.1% of XC)
    Density eval.           ....       0.028 sec  ( 10.4% of XC)
    XC-Functional eval.     ....       0.037 sec  ( 13.4% of XC)
    XC-Potential eval.      ....       0.037 sec  ( 13.5% of XC)
Diagonalization             ....       0.000 sec  (  0.0%)
Density matrix formation    ....       0.248 sec  ( 11.8%)
Total Energy calculation    ....       0.027 sec  (  1.3%)
Population analysis         ....       0.021 sec  (  1.0%)
Orbital Transformation      ....       0.031 sec  (  1.5%)
Orbital Orthonormalization  ....       0.000 sec  (  0.0%)
DIIS solution               ....       0.104 sec  (  5.0%)
SOSCF solution              ....       0.170 sec  (  8.1%)
Finished LeanSCF after   2.1 sec

Maximum memory used throughout the entire LEANSCF-calculation: 5.9 MB

------------------------------------------------------------------------------
                         ORCA PROPERTY INTEGRAL CALCULATIONS
------------------------------------------------------------------------------

GBWName                                   ... molecule.gbw
Number of atoms                           ...      3
Number of basis functions                 ...     43
Max core memory                           ...   1024 MB

Dipole integrals                          ... YES
Quadrupole integrals                      ...  NO
Linear momentum integrals                 ...  NO
Angular momentum integrals                ...  NO
Higher moments length integrals           ...  NO
Higher moments velocity integrals         ...  NO
Kinetic energy integrals                  ...  NO
GIAO right hand sides                     ...  NO
GIAO dipole derivative integrals          ...  NO
SOC integrals                             ...  NO
EPR diamagnetic integrals (GIAO)          ...  NO
EPR gauge integrals                       ...  NO
Field gradient integrals                  ...  NO (   0 nuclei)
Spin-dipole/Fermi contact integrals       ...  NO (   0 nuclei)
Contact density integrals                 ...  NO (   0 nuclei)
Nucleus-orbit integrals                   ...  NO (   0 nuclei)
Geometric perturbations                   ...  NO (   3 nuclei)

Choice of electric origin   ... Center of mass
Position of electric origin ... (  2.0744,  0.1336,  0.0059) 
Choice of magnetic origin   ... GIAO
Position of magnetic origin ... (  0.0000,  0.0000,  0.0000) 

Calculating integrals                     ... Electric Dipole (Length)     done (  0.0 sec)

Property integrals calculated in   0.0 sec

Maximum memory used throughout the entire PROPINT-calculation: 7.2 MB


-------------------------------------------------------------------------------
                          DFT DISPERSION CORRECTION                            
                                                                               
                                DFTD4 V3.4.0                                   
-------------------------------------------------------------------------------
The PBE0 functional is recognized
Active option DFTDOPT                   ...         5   

-------------------------   ----------------
Dispersion correction           -0.000157670
-------------------------   ----------------


-------------------------   --------------------
FINAL SINGLE POINT ENERGY       -76.377459703131
-------------------------   --------------------

------------------------------------------------------------------------------
                         ORCA SCF GRADIENT CALCULATION
------------------------------------------------------------------------------

Nuc. rep. gradient        (SHARK) ... done (  0.0 sec)
HCore & Overlap gradient  (SHARK) ... done (  0.0 sec)
Split-RIJ-J gradient      (SHARK) ... done (  0.1 sec)
COSX-gradient                     ... done (  0.4 sec)
XC gradient                       ... done (  0.1 sec)
Dispersion correction             ... done (  0.0 sec)

-------------------
DISPERSION GRADIENT
-------------------

   1   O   :    0.000026656    0.000013662   -0.000035134
   2   H   :   -0.000028515   -0.000002939    0.000007559
   3   H   :    0.000001859   -0.000010723    0.000027576

Difference to translation invariance:
           :    0.0000000000    0.0000000000    0.0000000000

Difference to rotation invariance:
           :   -0.0000000000   -0.0000000000   -0.0000000000

Norm of the Dispersion gradient    ...    0.0000623645
RMS gradient                       ...    0.0000207882
MAX gradient                       ...    0.0000351344

------------------
CARTESIAN GRADIENT
------------------

   1   O   :   -0.007175664   -0.003673013    0.009456949
   2   H   :    0.008733052    0.000524689   -0.001343692
   3   H   :   -0.001557388    0.003148324   -0.008113257

Difference to translation invariance:
           :   -0.0000000000   -0.0000000000    0.0000000000

Difference to rotation invariance:
           :   -0.0000105362    0.0000136331    0.0000129202

Norm of the Cartesian gradient     ...    0.0176330488
RMS gradient                       ...    0.0058776829
MAX gradient                       ...    0.0094569494

-------
TIMINGS
-------

Total SCF gradient time     ....        0.591 sec

Densities                   ....       0.000 sec  (  0.0%)
One electron gradient       ....       0.004 sec  (  0.7%)
RI-J Coulomb gradient       ....       0.063 sec  ( 10.7%)
COSX gradient               ....       0.427 sec  ( 72.3%)
XC gradient                 ....       0.072 sec  ( 12.2%)

Maximum memory used throughout the entire SCFGRAD-calculation: 25.6 MB
------------------------------------------------------------------------------
                         ORCA GEOMETRY RELAXATION STEP
------------------------------------------------------------------------------

Reading the OPT-File                    .... done
Getting information on internals        .... done
Copying old internal coords+grads       .... done
Making the new internal coordinates     .... (2022 redundants) done
Validating the new internal coordinates .... (2022 redundants) done
Calculating the B-matrix                .... done
Calculating the G,G- and P matrices     .... done
Transforming gradient to internals      .... done
Projecting the internal gradient        .... done
Number of atoms                         ....   3
Number of internal coordinates          ....   3
Current Energy                          ....   -76.377459703 Eh
Current gradient norm                   ....     0.017633049 Eh/bohr
Maximum allowed component of the step   ....  0.300
Current trust radius                    ....  0.300
Evaluating the initial hessian          ....  (Almloef) done
Projecting the Hessian                  .... done
Forming the augmented Hessian           .... done
Diagonalizing the augmented Hessian     .... done
Last element of RFO vector              ....  0.999678296
Lowest eigenvalues of augmented Hessian:
 -0.000317710  0.318385221  0.503042814
Length of the computed step             ....  0.025371629
The final length of the internal step   ....  0.025371629
Converting the step to Cartesian space:
 Initial RMS(Int)=    0.0146483171
Transforming coordinates:
 Iter   0:  RMS(Cart)=    0.0063953848 RMS(Int)=    0.0146495633
done
Storing new coordinates                 .... done

                                .--------------------.
          ----------------------|Geometry convergence|-------------------------
          Item                value                   Tolerance       Converged
          ---------------------------------------------------------------------
          RMS gradient        0.0072551230            0.0001000000      NO
          MAX gradient        0.0087900870            0.0003000000      NO
          RMS step            0.0146483171            0.0020000000      NO
          MAX step            0.0174628930            0.0040000000      NO
          ........................................................
          Max(Bonds)      0.0092      Max(Angles)    0.34
          Max(Dihed)        0.00      Max(Improp)    0.00
          ---------------------------------------------------------------------

The optimization has not yet converged - more geometry cycles are needed


    ---------------------------------------------------------------------------
                         Redundant Internal Coordinates
                            (Angstroem and degrees)

        Definition                    Value    dE/dq     Step     New-Value
    ----------------------------------------------------------------------------
     1. B(H   1,O   0)                0.9690  0.008790 -0.0092    0.9598   
     2. B(H   2,O   0)                0.9690  0.008785 -0.0092    0.9598   
     3. A(H   1,O   0,H   2)          103.98 -0.001863    0.34    104.31   
    ----------------------------------------------------------------------------

Geometry step timings:
Preparation and reading OPT file:      0.001 s (10.782 %)
Internal coordinates            :      0.000 s ( 0.472 %)
B/P matrices and projection     :      0.000 s ( 1.602 %)
Hessian update/contruction      :      0.004 s (57.415 %)
Making the step                 :      0.000 s ( 1.158 %)
Converting the step to Cartesian:      0.000 s ( 0.572 %)
Storing new data                :      0.001 s ( 8.237 %)
Checking convergence            :      0.000 s ( 0.014 %)
Final printing                  :      0.001 s (19.677 %)
Total time                      :      0.007 s

Time for energy+gradient        :      3.312 s
Time for complete geometry iter :      3.510 s

         *************************************************************
         *                GEOMETRY OPTIMIZATION CYCLE   2            *
         *************************************************************
---------------------------------
CARTESIAN COORDINATES (ANGSTROEM)
---------------------------------
  O      1.062193    0.052488    0.049932
  H      2.020983    0.068133    0.009676
  H      0.783314    0.385319   -0.805988

----------------------------
CARTESIAN COORDINATES (A.U.)
----------------------------
  NO LB      ZA    FRAG     MASS         X           Y           Z
   0 O     8.0000    1    15.999    2.007254    0.099189    0.094358
   1 H     1.0000    1     1.008    3.819105    0.128752    0.018285
   2 H     1.0000    1     1.008    1.480248    0.728147   -1.523097

----------------------------------------------
CARTESIAN COORDINATES OF FRAGMENTS (ANGSTROEM)
----------------------------------------------

 FRAGMENT 1 
  O     1.062193    0.052488    0.049932
  H     2.020983    0.068133    0.009676
  H     0.783314    0.385319   -0.805988

--------------------------------
INTERNAL COORDINATES (ANGSTROEM)
--------------------------------
 O      0   0   0     0.000000000000     0.00000000     0.00000000
 H      1   0   0     0.959762194408     0.00000000     0.00000000
 H      1   2   0     0.959765109984   104.31295463     0.00000000

---------------------------
INTERNAL COORDINATES (A.U.)
---------------------------
 O      0   0   0     0.000000000000     0.00000000     0.00000000
 H      1   0   0     1.813687701122     0.00000000     0.00000000
 H      1   2   0     1.813693210762   104.31295463     0.00000000

------------------------------------------------------------------------------
                   ___                                                        
                  /   \      - P O W E R E D   B Y -                         
                 /     \                                                     
                 |  |  |   _    _      __       _____    __    __             
                 |  |  |  | |  | |    /  \     |  _  \  |  |  /  |          
                  \  \/   | |  | |   /    \    | | | |  |  | /  /          
                 / \  \   | |__| |  /  /\  \   | |_| |  |  |/  /          
                |  |  |   |  __  | /  /__\  \  |    /   |      \           
                |  |  |   | |  | | |   __   |  |    \   |  |\   \          
                \     /   | |  | | |  |  |  |  | |\  \  |  | \   \       
                 \___/    |_|  |_| |__|  |__|  |_| \__\ |__|  \__/        
                                                                              
                      - O R C A' S   B I G   F R I E N D -                    
                                      &                                       
                       - I N T E G R A L  F E E D E R -                       
                                                                              
 v1 FN, 2020, v2 2021, v3 2022-2024                                           
------------------------------------------------------------------------------


----------------------
SHARK INTEGRAL PACKAGE
----------------------

Number of atoms                             ...      3
Number of basis functions                   ...     43
Number of shells                            ...     19
Maximum angular momentum                    ...      3
Integral batch strategy                     ... SHARK/LIBINT Hybrid
RI-J (if used) integral strategy            ... SPLIT-RIJ (Revised 2003 algorithm where possible)
Printlevel                                  ...      1
Contraction scheme used                     ... SEGMENTED contraction
Prescreening option                         ... SCHWARTZ
   Thresh                                   ... 2.500e-11
   Tcut                                     ... 2.500e-12
   Tpresel                                  ... 2.500e-12 
Coulomb Range Separation                    ... NOT USED
Exchange Range Separation                   ... NOT USED
Multipole approximations                    ... NOT USED
Finite Nucleus Model                        ... NOT USED
CABS basis                                  ... NOT available
Auxiliary Coulomb fitting basis             ... AVAILABLE
   # of basis functions in Aux-J            ...     71
   # of shells in Aux-J                     ...     25
   Maximum angular momentum in Aux-J        ...      4
Auxiliary J/K fitting basis                 ... NOT available
Auxiliary Correlation fitting basis         ... NOT available
Auxiliary 'external' fitting basis          ... NOT available

Checking pre-screening integrals            ... done (  0.0 sec) Dimension = 19
Check shell pair data                       ... done (  0.0 sec)
Shell pair information
Shell pair cut-off parameter TPreSel        ...   2.5e-12
Total number of shell pairs                 ...       190
Shell pairs after pre-screening             ...       190
Total number of primitive shell pairs       ...       556
Primitive shell pairs kept                  ...       535
          la=0 lb=0:     66 shell pairs
          la=1 lb=0:     55 shell pairs
          la=1 lb=1:     15 shell pairs
          la=2 lb=0:     22 shell pairs
          la=2 lb=1:     10 shell pairs
          la=2 lb=2:      3 shell pairs
          la=3 lb=0:     11 shell pairs
          la=3 lb=1:      5 shell pairs
          la=3 lb=2:      2 shell pairs
          la=3 lb=3:      1 shell pairs

Calculating one electron integrals          ... done (  0.0 sec)
Calculating RI/J V-Matrix + Cholesky decomp.... done (  0.0 sec)
Calculating Nuclear repulsion               ... done (  0.0 sec) ENN=      9.170892654370 Eh

Diagonalization of the overlap matrix:
Smallest eigenvalue                        ... 8.387e-03
Time for diagonalization                   ...    0.000 sec
Threshold for overlap eigenvalues          ... 1.000e-07
Number of eigenvalues below threshold      ... 0
Time for construction of square roots      ...    0.003 sec
Total time needed                          ...    0.006 sec

-------------------
DFT GRID GENERATION
-------------------

General Integration Accuracy     IntAcc      ... 4.388
Radial Grid Type                 RadialGrid  ... OptM3 with GC (2021)
Angular Grid (max. ang.)         AngularGrid ... 4 (Lebedev-302)
Angular grid pruning method      GridPruning ... 4 (adaptive)
Weight generation scheme         WeightScheme... mBecke (2022)
Basis function cutoff            BFCut       ... 1.0000e-11
Integration weight cutoff        WCut        ... 1.0000e-14
Partially contracted basis set               ... off
Rotationally invariant grid construction     ... off
Angular grids for H and He will be reduced by one unit

Total number of grid points                  ...    12747
Total number of batches                      ...      200
Average number of points per batch           ...       63
Average number of grid points per atom       ...     4249

--------------------
COSX GRID GENERATION
--------------------

GRIDX 1
-------
General Integration Accuracy     IntAcc      ... 3.816
Radial Grid Type                 RadialGrid  ... OptM3 with GC (2021)
Angular Grid (max. ang.)         AngularGrid ... 1 (Lebedev-50)
Angular grid pruning method      GridPruning ... 4 (adaptive)
Weight generation scheme         WeightScheme... mBecke (2022)
Basis function cutoff            BFCut       ... 1.0000e-11
Integration weight cutoff        WCut        ... 1.0000e-14
Partially contracted basis set               ... on
Rotationally invariant grid construction     ... off
Angular grids for H and He will be reduced by one unit

Total number of grid points                  ...     1656
Total number of batches                      ...       14
Average number of points per batch           ...      118
Average number of grid points per atom       ...      552
UseSFitting                                  ... on

GRIDX 2
-------
General Integration Accuracy     IntAcc      ... 4.020
Radial Grid Type                 RadialGrid  ... OptM3 with GC (2021)
Angular Grid (max. ang.)         AngularGrid ... 2 (Lebedev-110)
Angular grid pruning method      GridPruning ... 4 (adaptive)
Weight generation scheme         WeightScheme... mBecke (2022)
Basis function cutoff            BFCut       ... 1.0000e-11
Integration weight cutoff        WCut        ... 1.0000e-14
Partially contracted basis set               ... on
Rotationally invariant grid construction     ... off
Angular grids for H and He will be reduced by one unit

Total number of grid points                  ...     3500
Total number of batches                      ...       30
Average number of points per batch           ...      116
Average number of grid points per atom       ...     1167
UseSFitting                                  ... on

GRIDX 3
-------
General Integration Accuracy     IntAcc      ... 4.338
Radial Grid Type                 RadialGrid  ... OptM3 with GC (2021)
Angular Grid (max. ang.)         AngularGrid ... 3 (Lebedev-194)
Angular grid pruning method      GridPruning ... 4 (adaptive)
Weight generation scheme         WeightScheme... mBecke (2022)
Basis function cutoff            BFCut       ... 1.0000e-11
Integration weight cutoff        WCut        ... 1.0000e-14
Partially contracted basis set               ... on
Rotationally invariant grid construction     ... off
Angular grids for H and He will be reduced by one unit

Total number of grid points                  ...     7777
Total number of batches                      ...       62
Average number of points per batch           ...      125
Average number of grid points per atom       ...     2592
UseSFitting                                  ... on
Initializing property integral containers    ... done (  0.0 sec)

SHARK setup successfully completed in   0.2 seconds

Maximum memory used throughout the entire STARTUP-calculation: 13.7 MB
Occupation numbers will be reassigned to an Aufbau configuration
             **** ENERGY FILE WAS UPDATED (molecule.en.tmp) ****
Finished Guess after   0.1 sec
Maximum memory used throughout the entire GUESS-calculation: 7.0 MB
----------------------------------------D-I-I-S--------------------------------------------
Iteration    Energy (Eh)           Delta-E    RMSDP     MaxDP     DIISErr   Damp  Time(sec)
-------------------------------------------------------------------------------------------
               ***  Starting incremental Fock matrix formation  ***
    1    -76.3774258282355731     0.00e+00  7.59e-05  7.19e-04  5.29e-03  0.700   0.2
                              *** Initializing SOSCF ***
---------------------------------------S-O-S-C-F--------------------------------------
Iteration    Energy (Eh)           Delta-E    RMSDP     MaxDP     MaxGrad    Time(sec)
--------------------------------------------------------------------------------------
    2    -76.3774425263922723    -1.67e-05  1.99e-04  1.58e-03  3.25e-03     0.2
               *** Restarting incremental Fock matrix formation ***
    3    -76.3774731003569372    -3.06e-05  1.48e-04  1.75e-03  1.06e-03     0.2
    4    -76.3774697699606406     3.33e-06  8.52e-05  8.37e-04  1.28e-03     0.2
    5    -76.3774778563125523    -8.09e-06  4.22e-06  2.45e-05  5.19e-05     0.1
    6    -76.3774778683398665    -1.20e-08  1.12e-06  8.30e-06  1.84e-05     0.1
    7    -76.3774778697183905    -1.38e-09  9.85e-08  8.26e-07  5.18e-07     0.1
                 **** Energy Check signals convergence ****

               *****************************************************
               *                     SUCCESS                       *
               *           SCF CONVERGED AFTER   7 CYCLES          *
               *****************************************************

Recomputing exchange energy using gridx3       ... done (    0.107 sec)
Old exchange energy                            :     -2.234095486 Eh
New exchange energy                            :     -2.234083881 Eh
Exchange energy change after final integration :      0.000011606 Eh
Total energy after final integration           :    -76.377466264 Eh
             **** ENERGY FILE WAS UPDATED (molecule.en.tmp) ****

----------------
TOTAL SCF ENERGY
----------------

Total Energy       :        -76.37746626420936 Eh           -2078.33652 eV

Components:
Nuclear Repulsion  :          9.17089265437012 Eh             249.55268 eV
Electronic Energy  :        -85.54837052408851 Eh           -2327.88951 eV
One Electron Energy:       -123.05485142687606 Eh           -3348.49274 eV
Two Electron Energy:         37.50648090278755 Eh            1020.60323 eV

Virial components:
Potential Energy   :       -152.49411493105217 Eh           -4149.57583 eV
Kinetic Energy     :         76.11664866684281 Eh            2071.23931 eV
Virial Ratio       :          2.00342655124647

DFT components:
N(Alpha)           :        5.000000395285 electrons
N(Beta)            :        5.000000395285 electrons
N(Total)           :       10.000000790571 electrons
E(X)               :       -6.697488633160 Eh       
E(C)               :       -0.327089296630 Eh       
E(XC)              :       -7.024577929789 Eh       

---------------
SCF CONVERGENCE
---------------

  Last Energy change         ...    1.3785e-09  Tolerance :   1.0000e-08
  Last MAX-Density change    ...    8.2630e-07  Tolerance :   1.0000e-07
  Last RMS-Density change    ...    9.8486e-08  Tolerance :   5.0000e-09
  Last DIIS Error            ...    3.2519e-03  Tolerance :   5.0000e-07
  Last Orbital Gradient      ...    5.1780e-07  Tolerance :   1.0000e-05
  Last Orbital Rotation      ...    1.3245e-06  Tolerance :   1.0000e-05


Total SCF time: 0 days 0 hours 0 min 1 sec 
Finished LeanSCF after   1.5 sec

Maximum memory used throughout the entire LEANSCF-calculation: 6.0 MB

------------------------------------------------------------------------------
                         ORCA PROPERTY INTEGRAL CALCULATIONS
------------------------------------------------------------------------------

GBWName                                   ... molecule.gbw
Number of atoms                           ...      3
Number of basis functions                 ...     43
Max core memory                           ...   1024 MB

Dipole integrals                          ... YES
Quadrupole integrals                      ...  NO
Linear momentum integrals                 ...  NO
Angular momentum integrals                ...  NO
Higher moments length integrals           ...  NO
Higher moments velocity integrals         ...  NO
Kinetic energy integrals                  ...  NO
GIAO right hand sides                     ...  NO
GIAO dipole derivative integrals          ...  NO
SOC integrals                             ...  NO
EPR diamagnetic integrals (GIAO)          ...  NO
EPR gauge integrals                       ...  NO
Field gradient integrals                  ...  NO (   0 nuclei)
Spin-dipole/Fermi contact integrals       ...  NO (   0 nuclei)
Contact density integrals                 ...  NO (   0 nuclei)
Nucleus-orbit integrals                   ...  NO (   0 nuclei)
Geometric perturbations                   ...  NO (   3 nuclei)

Choice of electric origin   ... Center of mass
Position of electric origin ... (  2.0791,  0.1360, -0.0004) 
Choice of magnetic origin   ... GIAO
Position of magnetic origin ... (  0.0000,  0.0000,  0.0000) 

Calculating integrals                     ... Electric Dipole (Length)     done (  0.0 sec)

Property integrals calculated in   0.0 sec

Maximum memory used throughout the entire PROPINT-calculation: 7.2 MB


-------------------------------------------------------------------------------
                          DFT DISPERSION CORRECTION                            
                                                                               
                                DFTD4 V3.4.0                                   
-------------------------------------------------------------------------------
-------------------------   ----------------
Dispersion correction           -0.000156580
-------------------------   ----------------


-------------------------   --------------------
FINAL SINGLE POINT ENERGY       -76.377622844047
-------------------------   --------------------

------------------------------------------------------------------------------
                         ORCA SCF GRADIENT CALCULATION
------------------------------------------------------------------------------

Nuc. rep. gradient        (SHARK) ... done (  0.0 sec)
HCore & Overlap gradient  (SHARK) ... done (  0.0 sec)
Split-RIJ-J gradient      (SHARK) ... done (  0.1 sec)
COSX-gradient                     ... done (  0.4 sec)
XC gradient                       ... done (  0.1 sec)
Dispersion correction             ... done (  0.0 sec)

-------------------
DISPERSION GRADIENT
-------------------

   1   O   :    0.000027126    0.000013903   -0.000035754
   2   H   :   -0.000029068   -0.000002978    0.000007659
   3   H   :    0.000001942   -0.000010925    0.000028095

Difference to translation invariance:
           :    0.0000000000   -0.0000000000    0.0000000000

Difference to rotation invariance:
           :   -0.0000000000   -0.0000000000   -0.0000000000

Norm of the Dispersion gradient    ...    0.0000635007
RMS gradient                       ...    0.0000211669
MAX gradient                       ...    0.0000357539

------------------
CARTESIAN GRADIENT
------------------

   1   O   :   -0.000879838   -0.000449483    0.001167463
   2   H   :   -0.000240393    0.000405152   -0.001036198
   3   H   :    0.001120231    0.000044331   -0.000131265

Difference to translation invariance:
           :   -0.0000000000   -0.0000000000    0.0000000000

Difference to rotation invariance:
           :   -0.0000106698    0.0000146237    0.0000132412

Norm of the Cartesian gradient     ...    0.0022155982
RMS gradient                       ...    0.0007385327
MAX gradient                       ...    0.0011674630

-------
TIMINGS
-------

Total SCF gradient time     ....        0.592 sec

Densities                   ....       0.000 sec  (  0.0%)
One electron gradient       ....       0.005 sec  (  0.8%)
RI-J Coulomb gradient       ....       0.061 sec  ( 10.3%)
COSX gradient               ....       0.423 sec  ( 71.4%)
XC gradient                 ....       0.074 sec  ( 12.5%)

Maximum memory used throughout the entire SCFGRAD-calculation: 25.6 MB
------------------------------------------------------------------------------
                         ORCA GEOMETRY RELAXATION STEP
------------------------------------------------------------------------------

Reading the OPT-File                    .... done
Getting information on internals        .... done
Copying old internal coords+grads       .... done
Making the new internal coordinates     .... (2022 redundants) done
Validating the new internal coordinates .... (2022 redundants) done
Calculating the B-matrix                .... done
Calculating the G,G- and P matrices     .... done
Transforming gradient to internals      .... done
Projecting the internal gradient        .... done
Number of atoms                         ....   3
Number of internal coordinates          ....   3
Current Energy                          ....   -76.377622844 Eh
Current gradient norm                   ....     0.002215598 Eh/bohr
Maximum allowed component of the step   ....  0.300
Current trust radius                    ....  0.300
Updating the Hessian (BFGS)             .... done
Forming the augmented Hessian           .... done
Diagonalizing the augmented Hessian     .... done
Last element of RFO vector              ....  0.999977332
Lowest eigenvalues of augmented Hessian:
 -0.000013474  0.282395981  0.503042819
Length of the computed step             ....  0.006733343
The final length of the internal step   ....  0.006733343
Converting the step to Cartesian space:
 Initial RMS(Int)=    0.0038874972
Transforming coordinates:
 Iter   0:  RMS(Cart)=    0.0021285748 RMS(Int)=    0.0038876236
done
Storing new coordinates                 .... done
The predicted energy change is          ....    -0.000006737
Previously predicted energy change      ....    -0.000158957
Actually observed energy change         ....    -0.000163141
Ratio of predicted to observed change   ....     1.026320695
New trust radius                        ....     0.450000000

                                .--------------------.
          ----------------------|Geometry convergence|-------------------------
          Item                value                   Tolerance       Converged
          ---------------------------------------------------------------------
          Energy change      -0.0001631409            0.0000050000      NO
          RMS gradient        0.0011802660            0.0001000000      NO
          MAX gradient        0.0020262475            0.0003000000      NO
          RMS step            0.0038874972            0.0020000000      NO
          MAX step            0.0067153207            0.0040000000      NO
          ........................................................
          Max(Bonds)      0.0002      Max(Angles)    0.38
          Max(Dihed)        0.00      Max(Improp)    0.00
          ---------------------------------------------------------------------

The optimization has not yet converged - more geometry cycles are needed


    ---------------------------------------------------------------------------
                         Redundant Internal Coordinates
                            (Angstroem and degrees)

        Definition                    Value    dE/dq     Step     New-Value
    ----------------------------------------------------------------------------
     1. B(H   1,O   0)                0.9598 -0.000192 -0.0002    0.9596   
     2. B(H   2,O   0)                0.9598 -0.000191 -0.0002    0.9596   
     3. A(H   1,O   0,H   2)          104.31 -0.002026    0.38    104.70   
    ----------------------------------------------------------------------------

Geometry step timings:
Preparation and reading OPT file:      0.002 s (16.696 %)
Internal coordinates            :      0.000 s ( 0.340 %)
B/P matrices and projection     :      0.000 s ( 1.143 %)
Hessian update/contruction      :      0.006 s (60.237 %)
Making the step                 :      0.000 s ( 1.019 %)
Converting the step to Cartesian:      0.000 s ( 0.340 %)
Storing new data                :      0.001 s ( 5.342 %)
Checking convergence            :      0.000 s ( 0.113 %)
Final printing                  :      0.001 s (14.750 %)
Total time                      :      0.010 s

Time for energy+gradient        :      2.525 s
Time for complete geometry iter :      2.726 s

         *************************************************************
         *                GEOMETRY OPTIMIZATION CYCLE   3            *
         *************************************************************
---------------------------------
CARTESIAN COORDINATES (ANGSTROEM)
---------------------------------
  O      1.063217    0.053013    0.048582
  H      2.021963    0.067488    0.011334
  H      0.781310    0.385439   -0.806296

----------------------------
CARTESIAN COORDINATES (A.U.)
----------------------------
  NO LB      ZA    FRAG     MASS         X           Y           Z
   0 O     8.0000    1    15.999    2.009189    0.100181    0.091807
   1 H     1.0000    1     1.008    3.820956    0.127534    0.021418
   2 H     1.0000    1     1.008    1.476462    0.728373   -1.523679

----------------------------------------------
CARTESIAN COORDINATES OF FRAGMENTS (ANGSTROEM)
----------------------------------------------

 FRAGMENT 1 
  O     1.063217    0.053013    0.048582
  H     2.021963    0.067488    0.011334
  H     0.781310    0.385439   -0.806296

--------------------------------
INTERNAL COORDINATES (ANGSTROEM)
--------------------------------
 O      0   0   0     0.000000000000     0.00000000     0.00000000
 H      1   0   0     0.959578606426     0.00000000     0.00000000
 H      1   2   0     0.959580268346   104.69771417     0.00000000

---------------------------
INTERNAL COORDINATES (A.U.)
---------------------------
 O      0   0   0     0.000000000000     0.00000000     0.00000000
 H      1   0   0     1.813340770116     0.00000000     0.00000000
 H      1   2   0     1.813343910689   104.69771417     0.00000000

------------------------------------------------------------------------------
                   ___                                                        
                  /   \      - P O W E R E D   B Y -                         
                 /     \                                                     
                 |  |  |   _    _      __       _____    __    __             
                 |  |  |  | |  | |    /  \     |  _  \  |  |  /  |          
                  \  \/   | |  | |   /    \    | | | |  |  | /  /          
                 / \  \   | |__| |  /  /\  \   | |_| |  |  |/  /          
                |  |  |   |  __  | /  /__\  \  |    /   |      \           
                |  |  |   | |  | | |   __   |  |    \   |  |\   \          
                \     /   | |  | | |  |  |  |  | |\  \  |  | \   \       
                 \___/    |_|  |_| |__|  |__|  |_| \__\ |__|  \__/        
                                                                              
                      - O R C A' S   B I G   F R I E N D -                    
                                      &                                       
                       - I N T E G R A L  F E E D E R -                       
                                                                              
 v1 FN, 2020, v2 2021, v3 2022-2024                                           
------------------------------------------------------------------------------


----------------------
SHARK INTEGRAL PACKAGE
----------------------

Number of atoms                             ...      3
Number of basis functions                   ...     43
Number of shells                            ...     19
Maximum angular momentum                    ...      3
Integral batch strategy                     ... SHARK/LIBINT Hybrid
RI-J (if used) integral strategy            ... SPLIT-RIJ (Revised 2003 algorithm where possible)
Printlevel                                  ...      1
Contraction scheme used                     ... SEGMENTED contraction
Prescreening option                         ... SCHWARTZ
   Thresh                                   ... 2.500e-11
   Tcut                                     ... 2.500e-12
   Tpresel                                  ... 2.500e-12 
Coulomb Range Separation                    ... NOT USED
Exchange Range Separation                   ... NOT USED
Multipole approximations                    ... NOT USED
Finite Nucleus Model                        ... NOT USED
CABS basis                                  ... NOT available
Auxiliary Coulomb fitting basis             ... AVAILABLE
   # of basis functions in Aux-J            ...     71
   # of shells in Aux-J                     ...     25
   Maximum angular momentum in Aux-J        ...      4
Auxiliary J/K fitting basis                 ... NOT available
Auxiliary Correlation fitting basis         ... NOT available
Auxiliary 'external' fitting basis          ... NOT available

Checking pre-screening integrals            ... done (  0.0 sec) Dimension = 19
Check shell pair data                       ... done (  0.0 sec)
Shell pair information
Shell pair cut-off parameter TPreSel        ...   2.5e-12
Total number of shell pairs                 ...       190
Shell pairs after pre-screening             ...       190
Total number of primitive shell pairs       ...       556
Primitive shell pairs kept                  ...       535
          la=0 lb=0:     66 shell pairs
          la=1 lb=0:     55 shell pairs
          la=1 lb=1:     15 shell pairs
          la=2 lb=0:     22 shell pairs
          la=2 lb=1:     10 shell pairs
          la=2 lb=2:      3 shell pairs
          la=3 lb=0:     11 shell pairs
          la=3 lb=1:      5 shell pairs
          la=3 lb=2:      2 shell pairs
          la=3 lb=3:      1 shell pairs

Calculating one electron integrals          ... done (  0.0 sec)
Calculating RI/J V-Matrix + Cholesky decomp.... done (  0.0 sec)
Calculating Nuclear repulsion               ... done (  0.0 sec) ENN=      9.171746738298 Eh

Diagonalization of the overlap matrix:
Smallest eigenvalue                        ... 8.385e-03
Time for diagonalization                   ...    0.000 sec
Threshold for overlap eigenvalues          ... 1.000e-07
Number of eigenvalues below threshold      ... 0
Time for construction of square roots      ...    0.003 sec
Total time needed                          ...    0.005 sec

-------------------
DFT GRID GENERATION
-------------------

General Integration Accuracy     IntAcc      ... 4.388
Radial Grid Type                 RadialGrid  ... OptM3 with GC (2021)
Angular Grid (max. ang.)         AngularGrid ... 4 (Lebedev-302)
Angular grid pruning method      GridPruning ... 4 (adaptive)
Weight generation scheme         WeightScheme... mBecke (2022)
Basis function cutoff            BFCut       ... 1.0000e-11
Integration weight cutoff        WCut        ... 1.0000e-14
Partially contracted basis set               ... off
Rotationally invariant grid construction     ... off
Angular grids for H and He will be reduced by one unit

Total number of grid points                  ...    12746
Total number of batches                      ...      200
Average number of points per batch           ...       63
Average number of grid points per atom       ...     4249

--------------------
COSX GRID GENERATION
--------------------

GRIDX 1
-------
General Integration Accuracy     IntAcc      ... 3.816
Radial Grid Type                 RadialGrid  ... OptM3 with GC (2021)
Angular Grid (max. ang.)         AngularGrid ... 1 (Lebedev-50)
[...]
--------------------------------------------------------------------------------------
    1    -76.3774913436139116     0.00e+00  4.40e-07  3.81e-06  5.61e-07     0.2
               *** Restarting incremental Fock matrix formation ***
    2    -76.3774913437269305    -1.13e-10  2.28e-07  2.18e-06  1.31e-06     0.2
                  *** Gradient check signals convergence ***

               *****************************************************
               *                     SUCCESS                       *
               *           SCF CONVERGED AFTER   2 CYCLES          *
               *****************************************************

Recomputing exchange energy using gridx3       ... done (    0.101 sec)
Old exchange energy                            :     -2.234139743 Eh
New exchange energy                            :     -2.234127928 Eh
Exchange energy change after final integration :      0.000011814 Eh
Total energy after final integration           :    -76.377479529 Eh
             **** ENERGY FILE WAS UPDATED (molecule.en.tmp) ****

----------------
TOTAL SCF ENERGY
----------------

Total Energy       :        -76.37747952937919 Eh           -2078.33688 eV

Components:
Nuclear Repulsion  :          9.17118252629020 Eh             249.56056 eV
Electronic Energy  :        -85.54867387001713 Eh           -2327.89776 eV
One Electron Energy:       -123.05728399374848 Eh           -3348.55893 eV
Two Electron Energy:         37.50861012373135 Eh            1020.66117 eV

Virial components:
Potential Energy   :       -152.49341386610413 Eh           -4149.55675 eV
Kinetic Energy     :         76.11593433672495 Eh            2071.21987 eV
Virial Ratio       :          2.00343614244420

DFT components:
N(Alpha)           :        5.000000351923 electrons
N(Beta)            :        5.000000351923 electrons
N(Total)           :       10.000000703845 electrons
E(X)               :       -6.697569286338 Eh       
E(C)               :       -0.327087489155 Eh       
E(XC)              :       -7.024656775493 Eh       

---------------
SCF CONVERGENCE
---------------

  Last Energy change         ...    1.1302e-10  Tolerance :   1.0000e-08
  Last MAX-Density change    ...    2.1837e-06  Tolerance :   1.0000e-07
  Last RMS-Density change    ...    2.2823e-07  Tolerance :   5.0000e-09
  Last DIIS Error            ...    6.5877e-06  Tolerance :   5.0000e-07
  Last Orbital Gradient      ...    1.3121e-06  Tolerance :   1.0000e-05
  Last Orbital Rotation      ...    1.6997e-06  Tolerance :   1.0000e-05


----------------
ORBITAL ENERGIES
----------------

  NO   OCC          E(Eh)            E(eV) 
   0   2.0000     -19.201530      -522.5002 
   1   2.0000      -1.038876       -28.2692 
   2   2.0000      -0.546868       -14.8810 
   3   2.0000      -0.402328       -10.9479 
   4   2.0000      -0.326795        -8.8925 
   5   0.0000       0.031503         0.8572 
   6   0.0000       0.106221         2.8904 
   7   0.0000       0.374091        10.1795 
   8   0.0000       0.423047        11.5117 
   9   0.0000       0.445174        12.1138 
  10   0.0000       0.455319        12.3899 
  11   0.0000       0.589873        16.0513 
  12   0.0000       0.612154        16.6576 
  13   0.0000       1.175391        31.9840 
  14   0.0000       1.196713        32.5642 
  15   0.0000       1.305912        35.5357 
*Only the first 10 virtual orbitals were printed.

                    ********************************
                    * MULLIKEN POPULATION ANALYSIS *
                    ********************************

-------------------------
MULLIKEN FRAGMENT CHARGES
-------------------------
 Fragment   0 :  -0.000000
Sum of fragment charges:   -0.0000000

---------------------------------
MULLIKEN FRAGMENT OVERLAP CHARGES
---------------------------------
                  0    
      0      11.169361

-----------------------
MULLIKEN ATOMIC CHARGES
-----------------------
   0 O :   -0.647057
   1 H :    0.323503
   2 H :    0.323554
Sum of atomic charges:   -0.0000000

--------------------------------
MULLIKEN REDUCED ORBITAL CHARGES
--------------------------------
  0 O s       :     3.808624  s :     3.808624
      pz      :     1.543495  p :     4.814874
      px      :     1.372129
      py      :     1.899250
      dz2     :     0.008531  d :     0.022193
      dxz     :     0.001949
      dyz     :     0.004258
      dx2y2   :     0.006416
      dxy     :     0.001040
      f0      :     0.000075  f :     0.001367
      f+1     :     0.000260
      f-1     :     0.000312
      f+2     :     0.000055
      f-2     :     0.000099
      f+3     :     0.000483
      f-3     :     0.000084

  1 H s       :     0.628172  s :     0.628172
      pz      :     0.012493  p :     0.048325
      px      :     0.019272
      py      :     0.016560

  2 H s       :     0.628126  s :     0.628126
      pz      :     0.018651  p :     0.048320
      px      :     0.012179
      py      :     0.017490



                     *******************************
                     * LOEWDIN POPULATION ANALYSIS *
                     *******************************

------------------------
LOEWDIN FRAGMENT CHARGES
------------------------
 Fragment   0 :  -0.000000

----------------------------
LOEWDIN FRAGMENT BOND ORDERS
----------------------------
                  0    
      0      14.530841

----------------------
LOEWDIN ATOMIC CHARGES
----------------------
   0 O :   -0.307935
   1 H :    0.153965
   2 H :    0.153971

-------------------------------
LOEWDIN REDUCED ORBITAL CHARGES
-------------------------------
  0 O s       :     3.459247  s :     3.459247
      pz      :     1.561134  p :     4.813594
      px      :     1.401429
      py      :     1.851032
      dz2     :     0.013337  d :     0.032654
      dxz     :     0.002591
      dyz     :     0.005075
      dx2y2   :     0.010996
      dxy     :     0.000656
      f0      :     0.000242  f :     0.002440
      f+1     :     0.000660
      f-1     :     0.000540
      f+2     :     0.000008
      f-2     :     0.000163
      f+3     :     0.000822
      f-3     :     0.000005

  1 H s       :     0.683132  s :     0.683132
      pz      :     0.033913  p :     0.162903
      px      :     0.082957
      py      :     0.046033

  2 H s       :     0.683126  s :     0.683126
      pz      :     0.078170  p :     0.162903
      px      :     0.032009
      py      :     0.052725



                      *****************************
                      * MAYER POPULATION ANALYSIS *
                      *****************************

  NA   - Mulliken gross atomic population
  ZA   - Total nuclear charge
  QA   - Mulliken gross atomic charge
  VA   - Mayer's total valence
  BVA  - Mayer's bonded valence
  FA   - Mayer's free valence

  ATOM       NA         ZA         QA         VA         BVA        FA
  0 O      8.6471     8.0000    -0.6471     1.8143     1.8143    -0.0000
  1 H      0.6765     1.0000     0.3235     0.9126     0.9126     0.0000
  2 H      0.6764     1.0000     0.3236     0.9126     0.9126    -0.0000

  Mayer bond orders larger than 0.100000
B(  0-O ,  1-H ) :   0.9072 B(  0-O ,  2-H ) :   0.9071 

-------
TIMINGS
-------

Total SCF time: 0 days 0 hours 0 min 0 sec 

Total time                  ....       0.534 sec
Sum of individual times     ....       0.499 sec  ( 93.3%)

SCF preparation             ....       0.068 sec  ( 12.7%)
Fock matrix formation       ....       0.352 sec  ( 65.8%)
  Startup                   ....       0.020 sec  (  5.7% of F)
  Split-RI-J                ....       0.021 sec  (  6.0% of F)
  Chain of spheres X        ....       0.230 sec  ( 65.5% of F)
  XC integration            ....       0.050 sec  ( 14.3% of F)
    Basis function eval.    ....       0.016 sec  ( 30.9% of XC)
    Density eval.           ....       0.006 sec  ( 11.1% of XC)
    XC-Functional eval.     ....       0.007 sec  ( 14.3% of XC)
    XC-Potential eval.      ....       0.007 sec  ( 14.8% of XC)
Diagonalization             ....       0.000 sec  (  0.0%)
Density matrix formation    ....       0.014 sec  (  2.6%)
Total Energy calculation    ....       0.008 sec  (  1.4%)
Population analysis         ....       0.023 sec  (  4.3%)
Orbital Transformation      ....       0.007 sec  (  1.3%)
Orbital Orthonormalization  ....       0.000 sec  (  0.0%)
DIIS solution               ....       0.009 sec  (  1.6%)
SOSCF solution              ....       0.019 sec  (  3.5%)
Finished LeanSCF after   0.6 sec

Maximum memory used throughout the entire LEANSCF-calculation: 6.3 MB

------------------------------------------------------------------------------
                         ORCA PROPERTY INTEGRAL CALCULATIONS
------------------------------------------------------------------------------

GBWName                                   ... molecule.gbw
Number of atoms                           ...      3
Number of basis functions                 ...     43
Max core memory                           ...   1024 MB

Dipole integrals                          ... YES
Quadrupole integrals                      ...  NO
Linear momentum integrals                 ...  NO
Angular momentum integrals                ...  NO
Higher moments length integrals           ...  NO
Higher moments velocity integrals         ...  NO
Kinetic energy integrals                  ...  NO
GIAO right hand sides                     ...  NO
GIAO dipole derivative integrals          ...  NO
SOC integrals                             ...  NO
EPR diamagnetic integrals (GIAO)          ...  NO
EPR gauge integrals                       ...  NO
Field gradient integrals                  ...  NO (   0 nuclei)
Spin-dipole/Fermi contact integrals       ...  NO (   0 nuclei)
Contact density integrals                 ...  NO (   0 nuclei)
Nucleus-orbit integrals                   ...  NO (   0 nuclei)
Geometric perturbations                   ... YES (   3 nuclei)

Choice of electric origin   ... Center of mass
Position of electric origin ... (  2.0822,  0.1376, -0.0044) 
Choice of magnetic origin   ... GIAO
Position of magnetic origin ... (  0.0000,  0.0000,  0.0000) 

Calculating integrals                     ... Electric Dipole (Length)     done (  0.0 sec)
Calculating integrals                     ... Geometrical perturbation right hand sides

-----------------------
GEOMETRIC PERTURBATIONS (3 nuclei)
-----------------------

MaxCore                            ...   1024 MB
Number of batches                  ...      1

BATCH   0: Atoms    0 -    2 (  9 perturbations)
   => H(core) and overlap derivative integrals     ... done (     0.0 sec)
   => Making and storing internal U-coefficients   ... done (     0.0 sec)
   => RI-J derivative integrals                    ... done (     0.1 sec)
   => RI-J response operators                      ... done (     0.0 sec)
   => Chain of spheres derivative integrals        ... done (     0.2 sec)
   => Chain of spheres response operator           ... done (     0.1 sec)
   => XC derivative integrals                      ... done (     0.4 sec)
   => XC response operators                        ... done (     0.1 sec)
   => Completing and storing right hand sides      ... done (     0.0 sec)
   => Total time for right hand sides =   0.9 sec

  geometrical perturbations done (  0.9 sec)

Property integrals calculated in   0.9 sec

Maximum memory used throughout the entire PROPINT-calculation: 8.9 MB


-------------------------------------------------------------------------------
                          DFT DISPERSION CORRECTION                            
                                                                               
                                DFTD4 V3.4.0                                   
-------------------------------------------------------------------------------
The PBE0 functional is recognized
Active option DFTDOPT                   ...         5   

-------------------------   ----------------
Dispersion correction           -0.000156394
-------------------------   ----------------


-------------------------   --------------------
FINAL SINGLE POINT ENERGY       -76.377635923803
-------------------------   --------------------

                                *** OPTIMIZATION RUN DONE ***

		     ------------------------------
			                   _   
			                  | |  
			  __ _  ___   __ _| |_ 
			 / _` |/ _ \ / _` | __|
			| (_| | (_) | (_| | |_ 
			 \__, |\___/ \__,_|\__|
			 __/ |                
			|___/                 

		      A Global Optimizer Algorithm
		     ------------------------------

Global parameters
-----------------
  GOAT version                               ... default
  Minimum global steps                       ... 3
  Number of base workers                     ... 4
  Split workers by                           ... 2
  Final number of workers                    ... 8
  Number of available CPUs                   ... 1
  Parameter list (worker : temperature)      ...  0 : 2903.97,  1 : 1451.98, 
                                                  2 :  725.99,  3 :  363.00, 
                                                  4 : 2903.97,  5 : 1451.98, 
                                                  6 :  725.99,  7 :  363.00 
  GradComp (mean : sigma)                    ... 1.00 : 0.50
  Number of fragments                        ... 1
  Number of atoms                            ... 3
  Flexibility parameter                      ... 0.50
  Optimizations per global step              ... 120
  Optimizations per worker                   ... 15
  *Reached the min. opt. per worker: max(flex * NAtoms, 15) = 15

Filtering criteria
------------------
  RMSD                                       ... 0.125 Angs (atom. pos.)
  EnDiff                                     ... 0.100 kcal/mol
  RotConst                                   ... 1.00-2.50 %
  Maximum Conf. Energy                       ... 6.000 kcal/mol

Thermodynamics
--------------
  Ensemble temperature                       ... 298.15 K
  Degeneracy of conformers                   ... 1
  *No rotamers will be included in Gconf

------------------------------------------------------------------------------
   Iter  MinTemp     MaxEn       GradComp    NOpt   NProcs    Output
------------------------------------------------------------------------------
   0     2903.97      9.00    1.00 : 0.50      15        1    molecule.goat.0.0.out
   1     1451.98      9.00    1.00 : 0.50      15        1    molecule.goat.0.1.out
   2      725.99      9.00    1.00 : 0.50      15        1    molecule.goat.0.2.out
   3      363.00      9.00    1.00 : 0.50      15        1    molecule.goat.0.3.out
   4     2903.97      9.00    1.00 : 0.50      15        1    molecule.goat.0.4.out
   5     1451.98      9.00    1.00 : 0.50      15        1    molecule.goat.0.5.out
   6      725.99      9.00    1.00 : 0.50      15        1    molecule.goat.0.6.out
   7      363.00      9.00    1.00 : 0.50      15        1    molecule.goat.0.7.out

			     GOAT Global Iter 1
		Iter    Min En       Sconf       Gconf   
		        Hartree      cal/(molK)  kcal/mol
		=========================================

		   1    -76.377636   0.000       0.000

   0     2903.97      9.00    1.00 : 0.50      15        1    molecule.goat.1.0.out
   1     1451.98      9.00    1.00 : 0.50      15        1    molecule.goat.1.1.out
   2      725.99      9.00    1.00 : 0.50      15        1    molecule.goat.1.2.out
   3      363.00      9.00    1.00 : 0.50      15        1    molecule.goat.1.3.out
   4     2903.97      9.00    1.00 : 0.50      15        1    molecule.goat.1.4.out
   5     1451.98      9.00    1.00 : 0.50      15        1    molecule.goat.1.5.out
   6      725.99      9.00    1.00 : 0.50      15        1    molecule.goat.1.6.out
   7      363.00      9.00    1.00 : 0.50      15        1    molecule.goat.1.7.out

			     GOAT Global Iter 2
		Iter    Min En       Sconf       Gconf   
		        Hartree      cal/(molK)  kcal/mol
		=========================================

		   1    -76.377636   0.000       0.000
		   2    -76.377636   0.000       0.000

   0     2903.97      9.00    1.00 : 0.50      15        1    molecule.goat.2.0.out
   1     1451.98      9.00    1.00 : 0.50      15        1    molecule.goat.2.1.out
   2      725.99      9.00    1.00 : 0.50      15        1    molecule.goat.2.2.out
   3      363.00      9.00    1.00 : 0.50      15        1    molecule.goat.2.3.out
   4     2903.97      9.00    1.00 : 0.50      15        1    molecule.goat.2.4.out
   5     1451.98      9.00    1.00 : 0.50      15        1    molecule.goat.2.5.out
   6      725.99      9.00    1.00 : 0.50      15        1    molecule.goat.2.6.out
   7      363.00      9.00    1.00 : 0.50      15        1    molecule.goat.2.7.out

			     GOAT Global Iter 3
		Iter    Min En       Sconf       Gconf   
		        Hartree      cal/(molK)  kcal/mol
		=========================================

		   1    -76.377636   0.000       0.000
		   2    -76.377636   0.000       0.000
		   3    -76.377636   0.000       0.000

		Global minimum found!
		Writing structure to molecule.globalminimum.xyz

		# Final ensemble info #
		Conformer     Energy     Degen.   % total   % cumul.  
		              (kcal/mol)
		------------------------------------------------------
		        0     0.000	     1     100.00     100.00

		Conformers below 3 kcal/mol: 1
		Lowest energy conformer    : -76.377636 Eh
		Sconf at 298.15 K          :  0.00 cal/(molK)
		Gconf at 298.15 K          : 0.00 kcal/mol

		Writing final ensemble to molecule.finalensemble.xyz
------------------------------------------------------------------------------
                            ORCA SCF RESPONSE CALCULATION
------------------------------------------------------------------------------

GBWName                                 ... molecule.gbw
Number of atoms                         ...      3
Number of basis functions               ...     43
Max core memory                         ...   1024 MB

Electric field perturbation             ...  NO
Quadrupolar field perturbation          ...  NO
Magnetic field perturbation (no GIAO)   ...  NO
Magnetic field perturbation (with GIAO) ...  NO
Linear momentum (velocity) perturbation ...  NO
Spin-orbit coupling perturbation        ...  NO
Choice of electric origin               ... Center of mass
Position of electric origin             ...     2.082216     0.137610    -0.004449
Choice of magnetic origin               ... GIAO
Position of magnetic origin             ...     0.000000     0.000000     0.000000
Nuclear geometric perturbations         ... YES (   9 perturbations)
Nucleus-orbit perturbations             ...  NO (   0 perturbations)
Spin-dipole/Fermi contact perturbations ...  NO (   0 perturbations)

Total number of real perturbations      ...      9
Total number of imaginary perturbations ...      0
Total number of triplet perturbations   ...      0
Total number of SOC perturbations       ...      0


                                **********************
                                * REAL PERTURBATIONS *
                                **********************



-------------------
SHARK CP-SCF DRIVER
-------------------

Dimension of the orbital basis          ...      0
Dimension of the CPSCF-problem          ...    190
Number of operators                     ...      1
Max. number of iterations               ...    128
Convergence Tolerance                   ... 1.0e-04
Number of perturbations                 ...      9
Perturbation type                       ... REAL

----------------------------
POPLE LINEAR EQUATION SOLVER
----------------------------


ORCA finished by error termination in SCF RESPONSE
Calling Command: /cluster/software/commercial/orca/6.0.0/x86_64/bin/orca_scfresp molecule.respinp.tmp molecule 1 
[file orca_tools/qcmsg.cpp, line 394]: 
  .... aborting the run

