
                                 *****************
                                 * O   R   C   A *
                                 *****************

                                            #,                                       
                                            ###                                      
                                            ####                                     
                                            #####                                    
                                            ######                                   
                                           ########,                                 
                                     ,,################,,,,,                         
                               ,,#################################,,                 
                          ,,##########################################,,             
                       ,#########################################, ''#####,          
                    ,#############################################,,   '####,        
                  ,##################################################,,,,####,       
                ,###########''''           ''''###############################       
              ,#####''   ,,,,##########,,,,          '''####'''          '####       
            ,##' ,,,,###########################,,,                        '##       
           ' ,,###''''                  '''############,,,                           
         ,,##''                                '''############,,,,        ,,,,,,###''
      ,#''                                            '''#######################'''  
     '                                                          ''''####''''         
             ,#######,   #######,   ,#######,      ##                                
            ,#'     '#,  ##    ##  ,#'     '#,    #''#        ,####,   ,####,        
            ##       ##  ##   ,#'  ##            #'  '#       #'       #'  '#        
            ##       ##  #######   ##           ,######,      #####,   #    #        
            '#,     ,#'  ##    ##  '#,     ,#' ,#      #,     #,   #   #,  ,#        
             '#######'   ##     ##  '#######'  #'      '#     '####' # '####'        



                #########################################################
                #                        -***-                          #
                #          Department of theory and spectroscopy        #
                #                                                       #
                #                      Frank Neese                      #
                #                                                       #
                #     Directorship, Architecture, Infrastructure        #
                #                    SHARK, DRIVERS                     #
                #        Core code/Algorithms in most modules           #
                #                                                       #
                #        Max Planck Institute fuer Kohlenforschung      #
                #                Kaiser Wilhelm Platz 1                 #
                #                 D-45470 Muelheim/Ruhr                 #
                #                      Germany                          #
                #                                                       #
                #                  All rights reserved                  #
                #                        -***-                          #
                #########################################################


                         Program Version 6.0.0  -   RELEASE  -


 With contributions from (in alphabetic order):
   Daniel Aravena         : Magnetic Suceptibility
   Michael Atanasov       : Ab Initio Ligand Field Theory (pilot matlab implementation)
   Alexander A. Auer      : GIAO ZORA, VPT2 properties, NMR spectrum
   Ute Becker             : All parallelization in ORCA, NUMFREQ, NUMCALC
   Giovanni Bistoni       : ED, misc. LED, open-shell LED, HFLD
   Martin Brehm           : Molecular dynamics
   Dmytro Bykov           : pre 5.0 version of the SCF Hessian
   Marcos Casanova-Páez   : Triplet and SCS-CIS(D). UHF-(DLPNO)-IP/EA/STEOM-CCSD. UHF-CVS-IP/STEOM-CCSD
   Vijay G. Chilkuri      : MRCI spin determinant printing, contributions to CSF-ICE
   Pauline Colinet        : FMM embedding
   Dipayan Datta          : RHF DLPNO-CCSD density
   Achintya Kumar Dutta   : EOM-CC, STEOM-CC
   Nicolas Foglia         : Exact transition moments, OPA infrastructure, MCD improvements
   Dmitry Ganyushin       : Spin-Orbit,Spin-Spin,Magnetic field MRCI
   Miquel Garcia          : C-PCM and meta-GGA Hessian, CCSD/C-PCM, Gaussian charge scheme
   Tiago L. C. Gouveia    : GS-ROHF, GS-ROCIS
   Yang Guo               : DLPNO-NEVPT2, F12-NEVPT2, CIM, IAO-localization
   Andreas Hansen         : Spin unrestricted coupled pair/coupled cluster methods
   Ingolf Harden          : AUTO-CI MPn and infrastructure 
   Benjamin Helmich-Paris : MC-RPA, TRAH-(SCF,CASSCF), AVAS, COSX integrals, SCF dyn. polar.
   Lee Huntington         : MR-EOM, pCC
   Robert Izsak           : Overlap fitted RIJCOSX, COSX-SCS-MP3, EOM
   Riya Kayal             : Wick's Theorem for AUTO-CI, AUTO-CI UHF-CCSDT
   Emily Kempfer          : AUTO-CI, RHF CISDT and CCSDT
   Christian Kollmar      : KDIIS, OOCD, Brueckner-CCSD(T), CCSD density, CASPT2, CASPT2-K, improved NEVPT2
   Axel Koslowski         : Symmetry handling
   Simone Kossmann        : Meta GGA functionals, TD-DFT gradient, OOMP2, (MP2 Hessian; deprecated post 5.0)
   Lucas Lang             : DCDCAS
   Marvin Lechner         : AUTO-CI (C++ implementation), FIC-MRCC
   Spencer Leger          : CASSCF response
   Dagmar Lenk            : GEPOL surface, SMD, ORCA-2-JSON
   Dimitrios Liakos       : Extrapolation schemes; Compound Job, initial MDCI parallelization
   Dimitrios Manganas     : Further ROCIS development; embedding schemes. LFT, Crystal Embedding
   Dimitrios Pantazis     : SARC Basis sets
   Anastasios Papadopoulos: AUTO-CI, single reference methods and gradients
   Taras Petrenko         : pre 6.0 DFT Hessian and TD-DFT gradient, (ASA, deprecated), ECA, 1-Electron XAS/XES, NRVS
   Peter Pinski           : DLPNO-MP2, DLPNO-MP2 Gradient
   Christoph Reimann      : Effective Core Potentials
   Marius Retegan         : Local ZFS, SOC
   Christoph Riplinger    : Optimizer, TS searches, QM/MM, DLPNO-CCSD(T), (RO)-DLPNO pert. Triples
   Michael Roemelt        : Original ROCIS implementation
   Masaaki Saitow         : Open-shell DLPNO-CCSD energy and density
   Barbara Sandhoefer     : DKH picture change effects
   Kantharuban Sivalingam : CASSCF convergence/infrastructure, NEVPT2 and variants, FIC-MRCI
   Bernardo de Souza      : ESD, SOC TD-DFT
   Georgi Stoychev        : AutoAux, RI-MP2 NMR, DLPNO-MP2 response, X2C
   Van Anh Tran           : RI-MP2 g-tensors
   Willem Van den Heuvel  : Paramagnetic NMR
   Zikuan Wang            : NOTCH, Electric field optimization 
   Frank Wennmohs         : Technical directorship and infrastructure
   Hang Xu                : AUTO-CI-Response properties 


 We gratefully acknowledge several colleagues who have allowed us to
 interface, adapt or use parts of their codes:
   Stefan Grimme, W. Hujo, H. Kruse, P. Pracht,  : VdW corrections, initial TS optimization,
                  C. Bannwarth, S. Ehlert,         DFT functionals, gCP, sTDA/sTD-DF
                  L. Wittmann, M. Mueller
   Ed Valeev, F. Pavosevic, A. Kumar             : LibInt (2-el integral package), F12 methods
   Garnet Chan, S. Sharma, J. Yang, R. Olivares  : DMRG
   Ulf Ekstrom                                   : XCFun DFT Library
   Mihaly Kallay                                 : mrcc  (arbitrary order and MRCC methods)
   Frank Weinhold                                : gennbo (NPA and NBO analysis)
   Simon Mueller                                 : openCOSMO-RS
   Christopher J. Cramer and Donald G. Truhlar   : smd solvation model
   Lars Goerigk                                  : TD-DFT with DH, B97 family of functionals
   V. Asgeirsson, H. Jonsson                     : NEB implementation
   FAccTs GmbH                                   : IRC, NEB, NEB-TS, DLPNO-Multilevel, CI-OPT
                                                   MM, QMMM, 2- and 3-layer-ONIOM, Crystal-QMMM,
                                                   LR-CPCM, SF, NACMEs, symmetry and pop. for TD-DFT,
                                                   nearIR, NL-DFT gradient (VV10), updates on ESD,
                                                   ML-optimized integration grids, MBIS, APM,
                                                   GOAT, DOCKER, SOLVATOR, interface openCOSMO-RS
   S Lehtola, MJT Oliveira, MAL Marques          : LibXC Library
   Liviu Ungur et al                             : ANISO software


 Your calculation uses the libint2 library for the computation of 2-el integrals
 For citations please refer to: http://libint.valeyev.net

 Your ORCA version has been built with support for libXC version: 6.2.2
 For citations please refer to: https://libxc.gitlab.io

 This ORCA versions uses:
   CBLAS   interface :  Fast vector & matrix operations
   LAPACKE interface :  Fast linear algebra routines
   SCALAPACK package :  Parallel linear algebra routines
   Shared memory     :  Shared parallel matrices
   BLAS/LAPACK       :  OpenBLAS 0.3.27  USE64BITINT DYNAMIC_ARCH NO_AFFINITY Cooperlake SINGLE_THREADED
        Core in use  :  Cooperlake
   Copyright (c) 2011-2014, The OpenBLAS Project


Your calculation utilizes the atom-pairwise dispersion correction
based on EEQ partial charges (D4)


================================================================================

----- Orbital basis set information -----
Your calculation utilizes the basis: def2-SVP
   F. Weigend and R. Ahlrichs, Phys. Chem. Chem. Phys. 7, 3297 (2005).

----- AuxJ basis set information -----
Your calculation utilizes the auxiliary basis: def2/J
   F. Weigend, Phys. Chem. Chem. Phys. 8, 1057 (2006).

================================================================================
                                        WARNINGS
                       Please study these warnings very carefully!
================================================================================


WARNING: Geometry Optimization
  ===> : Switching off AutoStart
         For restart on a previous wavefunction, please use MOREAD

================================================================================
                                       INPUT FILE
================================================================================
NAME = molecule.inp
|  1> # ORCA Input File generated by Ophysia
|  2> ! B3LYP D4 def2-SVP OPT RIJCOSX FREQ def2/J TIGHTOPT
|  3> * xyz 0 1
|  4> C          1.07187        0.01568       -0.07236
|  5> C          2.58616        0.00870       -0.07427
|  6> O          3.06784       -0.87984       -1.07155
|  7> H          0.68707        0.70422        0.68504
|  8> H          0.67987       -0.98631        0.13073
|  9> H          0.68639        0.31613       -1.05224
| 10> H          2.97758       -0.30804        0.89734
| 11> H          2.97315        1.00826       -0.29269
| 12> H          2.72826       -1.76681       -0.86302
| 13> **                         ****END OF INPUT****
================================================================================

                       *****************************
                       * Geometry Optimization Run *
                       *****************************

Geometry optimization settings:
Update method            Update   .... BFGS
Choice of coordinates    CoordSys .... (2022) Redundant Internals
Initial Hessian          InHess   .... Almloef's Model
Max. no of cycles        MaxIter  .... 50

Convergence Tolerances:
Energy Change            TolE     ....  1.0000e-06 Eh
Max. Gradient            TolMAXG  ....  1.0000e-04 Eh/bohr
RMS Gradient             TolRMSG  ....  3.0000e-05 Eh/bohr
Max. Displacement        TolMAXD  ....  1.0000e-03 bohr
RMS Displacement         TolRMSD  ....  6.0000e-04 bohr
Strict Convergence                .... False

------------------------------------------------------------------------------
                        ORCA OPTIMIZATION COORDINATE SETUP
------------------------------------------------------------------------------

The optimization will be done in redundant internal coordinates (2022)
Making redundant internal coordinates   ...  (2022 redundants) done
Evaluating the initial hessian          ...  (Almloef) done
Evaluating the coordinates              ...  done
Calculating the B-matrix                .... done
Calculating the G-matrix                .... done
Diagonalizing the G-matrix              .... done
The first mode is                       ....    9
The number of degrees of freedom        ....   21

    -----------------------------------------------------------------
                    Redundant Internal Coordinates


    -----------------------------------------------------------------
         Definition                    Initial Value    Approx d2E/dq
    -----------------------------------------------------------------
      1. B(C   1,C   0)                  1.5143         0.395744   
      2. B(O   2,C   1)                  1.4199         0.501405   
      3. B(H   3,C   0)                  1.0935         0.355457   
      4. B(H   4,C   0)                  1.0949         0.353624   
      5. B(H   5,C   0)                  1.0950         0.353543   
      6. B(H   6,C   1)                  1.0943         0.354416   
      7. B(H   7,C   1)                  1.0939         0.354995   
      8. B(H   8,O   2)                  0.9724         0.496846   
      9. A(C   1,C   0,H   5)          110.6200         0.326420   
     10. A(H   3,C   0,H   4)          108.7688         0.289423   
     11. A(H   3,C   0,H   5)          108.8540         0.289412   
     12. A(C   1,C   0,H   4)          110.7335         0.326432   
     13. A(C   1,C   0,H   3)          110.8338         0.326710   
     14. A(H   4,C   0,H   5)          106.9201         0.289178   
     15. A(H   6,C   1,H   7)          108.3742         0.289465   
     16. A(C   0,C   1,O   2)          110.0600         0.383655   
     17. A(O   2,C   1,H   7)          108.1534         0.337653   
     18. A(C   0,C   1,H   7)          110.4758         0.326640   
     19. A(O   2,C   1,H   6)          108.7317         0.337561   
     20. A(C   0,C   1,H   6)          110.9707         0.326552   
     21. A(C   1,O   2,H   8)          107.5610         0.354184   
     22. D(O   2,C   1,C   0,H   4)     59.7652         0.012436   
     23. D(H   6,C   1,C   0,H   3)     60.1688         0.012436   
     24. D(O   2,C   1,C   0,H   3)   -179.4278         0.012436   
     25. D(H   6,C   1,C   0,H   4)    -60.6381         0.012436   
     26. D(H   6,C   1,C   0,H   5)   -178.9927         0.012436   
     27. D(O   2,C   1,C   0,H   5)    -58.5893         0.012436   
     28. D(H   8,O   2,C   1,C   0)    -59.9259         0.019879   
     29. D(H   8,O   2,C   1,H   7)    179.3010         0.019879   
     30. D(H   8,O   2,C   1,H   6)     61.8189         0.019879   
    -----------------------------------------------------------------

Number of atoms                         .... 9
Number of degrees of freedom            .... 30


         *************************************************************
         *                GEOMETRY OPTIMIZATION CYCLE   1            *
         *************************************************************
---------------------------------
CARTESIAN COORDINATES (ANGSTROEM)
---------------------------------
  C      1.071870    0.015680   -0.072360
  C      2.586160    0.008700   -0.074270
  O      3.067840   -0.879840   -1.071550
  H      0.687070    0.704220    0.685040
  H      0.679870   -0.986310    0.130730
  H      0.686390    0.316130   -1.052240
  H      2.977580   -0.308040    0.897340
  H      2.973150    1.008260   -0.292690
  H      2.728260   -1.766810   -0.863020

----------------------------
CARTESIAN COORDINATES (A.U.)
----------------------------
  NO LB      ZA    FRAG     MASS         X           Y           Z
   0 C     6.0000    0    12.011    2.025541    0.029631   -0.136741
   1 C     6.0000    0    12.011    4.887134    0.016441   -0.140350
   2 O     8.0000    0    15.999    5.797377   -1.662657   -2.024936
   3 H     1.0000    0     1.008    1.298374    1.330783    1.294538
   4 H     1.0000    0     1.008    1.284768   -1.863856    0.247044
   5 H     1.0000    0     1.008    1.297089    0.597399   -1.988445
   6 H     1.0000    0     1.008    5.626811   -0.582111    1.695727
   7 H     1.0000    0     1.008    5.618439    1.905335   -0.553104
   8 H     1.0000    0     1.008    5.155664   -3.338787   -1.630871

--------------------------------
INTERNAL COORDINATES (ANGSTROEM)
--------------------------------
 C      0   0   0     0.000000000000     0.00000000     0.00000000
 C      1   0   0     1.514307291338     0.00000000     0.00000000
 O      2   1   0     1.419889556409   110.06000788     0.00000000
 H      1   2   3     1.093532409945   110.83383881   180.57217448
 H      1   2   3     1.094939956436   110.73353414    59.76521695
 H      1   2   3     1.095002213377   110.61996698   301.41069642
 H      2   1   3     1.094330770882   110.97066832   239.59663621
 H      2   1   3     1.093886991467   110.47575728   119.36710340
 H      3   2   1     0.972376016878   107.56102317   300.07405468

---------------------------
INTERNAL COORDINATES (A.U.)
---------------------------
 C      0   0   0     0.000000000000     0.00000000     0.00000000
 C      1   0   0     2.861626063229     0.00000000     0.00000000
 O      2   1   0     2.683202402028   110.06000788     0.00000000
 H      1   2   3     2.066476773363   110.83383881   180.57217448
 H      1   2   3     2.069136650752   110.73353414    59.76521695
 H      1   2   3     2.069254299320   110.61996698   301.41069642
 H      2   1   3     2.067985456891   110.97066832   239.59663621
 H      2   1   3     2.067146835331   110.47575728   119.36710340
 H      3   2   1     1.837524371093   107.56102317   300.07405468

---------------------
BASIS SET INFORMATION
---------------------
There are 3 groups of distinct atoms

 Group   1 Type C   : 7s4p1d contracted to 3s2p1d pattern {511/31/1}
 Group   2 Type O   : 7s4p1d contracted to 3s2p1d pattern {511/31/1}
 Group   3 Type H   : 4s1p contracted to 2s1p pattern {31/1}

Atom   0C    basis set group =>   1
Atom   1C    basis set group =>   1
Atom   2O    basis set group =>   2
Atom   3H    basis set group =>   3
Atom   4H    basis set group =>   3
Atom   5H    basis set group =>   3
Atom   6H    basis set group =>   3
Atom   7H    basis set group =>   3
Atom   8H    basis set group =>   3
---------------------------------
AUXILIARY/J BASIS SET INFORMATION
---------------------------------
There are 3 groups of distinct atoms

 Group   1 Type C   : 12s5p4d2f1g contracted to 6s4p3d1f1g pattern {711111/2111/211/2/1}
 Group   2 Type O   : 12s5p4d2f1g contracted to 6s4p3d1f1g pattern {711111/2111/211/2/1}
 Group   3 Type H   : 5s2p1d contracted to 3s1p1d pattern {311/2/1}

Atom   0C    basis set group =>   1
Atom   1C    basis set group =>   1
Atom   2O    basis set group =>   2
Atom   3H    basis set group =>   3
Atom   4H    basis set group =>   3
Atom   5H    basis set group =>   3
Atom   6H    basis set group =>   3
Atom   7H    basis set group =>   3
Atom   8H    basis set group =>   3
------------------------------------------------------------------------------
                             ORCA STARTUP CALCULATIONS
                           -- RI-GTO INTEGRALS CHOSEN --
------------------------------------------------------------------------------
------------------------------------------------------------------------------
                   ___                                                        
                  /   \      - P O W E R E D   B Y -                         
                 /     \                                                     
                 |  |  |   _    _      __       _____    __    __             
                 |  |  |  | |  | |    /  \     |  _  \  |  |  /  |          
                  \  \/   | |  | |   /    \    | | | |  |  | /  /          
                 / \  \   | |__| |  /  /\  \   | |_| |  |  |/  /          
                |  |  |   |  __  | /  /__\  \  |    /   |      \           
                |  |  |   | |  | | |   __   |  |    \   |  |\   \          
                \     /   | |  | | |  |  |  |  | |\  \  |  | \   \       
                 \___/    |_|  |_| |__|  |__|  |_| \__\ |__|  \__/        
                                                                              
                      - O R C A' S   B I G   F R I E N D -                    
                                      &                                       
                       - I N T E G R A L  F E E D E R -                       
                                                                              
 v1 FN, 2020, v2 2021, v3 2022-2024                                           
------------------------------------------------------------------------------


----------------------
SHARK INTEGRAL PACKAGE
----------------------

Number of atoms                             ...      9
Number of basis functions                   ...     72
Number of shells                            ...     36
Maximum angular momentum                    ...      2
Integral batch strategy                     ... SHARK/LIBINT Hybrid
RI-J (if used) integral strategy            ... SPLIT-RIJ (Revised 2003 algorithm where possible)
Printlevel                                  ...      1
Contraction scheme used                     ... SEGMENTED contraction
Prescreening option                         ... SCHWARTZ
   Thresh                                   ... 2.500e-11
   Tcut                                     ... 2.500e-12
   Tpresel                                  ... 2.500e-12 
Coulomb Range Separation                    ... NOT USED
Exchange Range Separation                   ... NOT USED
Multipole approximations                    ... NOT USED
Finite Nucleus Model                        ... NOT USED
CABS basis                                  ... NOT available
Auxiliary Coulomb fitting basis             ... AVAILABLE
   # of basis functions in Aux-J            ...    213
   # of shells in Aux-J                     ...     75
   Maximum angular momentum in Aux-J        ...      4
Auxiliary J/K fitting basis                 ... NOT available
Auxiliary Correlation fitting basis         ... NOT available
Auxiliary 'external' fitting basis          ... NOT available

Checking pre-screening integrals            ... done (  0.0 sec) Dimension = 36
Check shell pair data                       ... done (  0.0 sec)
Shell pair information
Shell pair cut-off parameter TPreSel        ...   2.5e-12
Total number of shell pairs                 ...       666
Shell pairs after pre-screening             ...       664
Total number of primitive shell pairs       ...      2268
Primitive shell pairs kept                  ...      1963
          la=0 lb=0:    230 shell pairs
          la=1 lb=0:    251 shell pairs
          la=1 lb=1:     78 shell pairs
          la=2 lb=0:     63 shell pairs
          la=2 lb=1:     36 shell pairs
          la=2 lb=2:      6 shell pairs

Calculating one electron integrals          ... done (  0.0 sec)
Calculating RI/J V-Matrix + Cholesky decomp.... done (  0.0 sec)
Calculating Nuclear repulsion               ... done (  0.0 sec) ENN=     82.026145401681 Eh

Diagonalization of the overlap matrix:
Smallest eigenvalue                        ... 3.665e-03
Time for diagonalization                   ...    0.006 sec
Threshold for overlap eigenvalues          ... 1.000e-07
Number of eigenvalues below threshold      ... 0
Time for construction of square roots      ...    0.003 sec
Total time needed                          ...    0.011 sec

-------------------
DFT GRID GENERATION
-------------------

General Integration Accuracy     IntAcc      ... 4.388
Radial Grid Type                 RadialGrid  ... OptM3 with GC (2021)
Angular Grid (max. ang.)         AngularGrid ... 4 (Lebedev-302)
Angular grid pruning method      GridPruning ... 4 (adaptive)
Weight generation scheme         WeightScheme... mBecke (2022)
Basis function cutoff            BFCut       ... 1.0000e-11
Integration weight cutoff        WCut        ... 1.0000e-14
Partially contracted basis set               ... off
Rotationally invariant grid construction     ... off
Angular grids for H and He will be reduced by one unit

Total number of grid points                  ...    37713
Total number of batches                      ...      593
Average number of points per batch           ...       63
Average number of grid points per atom       ...     4190

--------------------
COSX GRID GENERATION
--------------------

GRIDX 1
-------
General Integration Accuracy     IntAcc      ... 3.816
Radial Grid Type                 RadialGrid  ... OptM3 with GC (2021)
Angular Grid (max. ang.)         AngularGrid ... 1 (Lebedev-50)
Angular grid pruning method      GridPruning ... 4 (adaptive)
Weight generation scheme         WeightScheme... mBecke (2022)
Basis function cutoff            BFCut       ... 1.0000e-11
Integration weight cutoff        WCut        ... 1.0000e-14
Partially contracted basis set               ... on
Rotationally invariant grid construction     ... off
Angular grids for H and He will be reduced by one unit

Total number of grid points                  ...     4879
Total number of batches                      ...       44
Average number of points per batch           ...      110
Average number of grid points per atom       ...      542
UseSFitting                                  ... on

GRIDX 2
-------
General Integration Accuracy     IntAcc      ... 4.020
Radial Grid Type                 RadialGrid  ... OptM3 with GC (2021)
Angular Grid (max. ang.)         AngularGrid ... 2 (Lebedev-110)
Angular grid pruning method      GridPruning ... 4 (adaptive)
Weight generation scheme         WeightScheme... mBecke (2022)
Basis function cutoff            BFCut       ... 1.0000e-11
Integration weight cutoff        WCut        ... 1.0000e-14
Partially contracted basis set               ... on
Rotationally invariant grid construction     ... off
Angular grids for H and He will be reduced by one unit

Total number of grid points                  ...    10206
Total number of batches                      ...       84
Average number of points per batch           ...      121
Average number of grid points per atom       ...     1134
UseSFitting                                  ... on

GRIDX 3
-------
General Integration Accuracy     IntAcc      ... 4.338
Radial Grid Type                 RadialGrid  ... OptM3 with GC (2021)
Angular Grid (max. ang.)         AngularGrid ... 3 (Lebedev-194)
Angular grid pruning method      GridPruning ... 4 (adaptive)
Weight generation scheme         WeightScheme... mBecke (2022)
Basis function cutoff            BFCut       ... 1.0000e-11
Integration weight cutoff        WCut        ... 1.0000e-14
Partially contracted basis set               ... on
Rotationally invariant grid construction     ... off
Angular grids for H and He will be reduced by one unit

Total number of grid points                  ...    22466
Total number of batches                      ...      179
Average number of points per batch           ...      125
Average number of grid points per atom       ...     2496
UseSFitting                                  ... on
Initializing property integral containers    ... done (  0.0 sec)

SHARK setup successfully completed in   0.4 seconds

Maximum memory used throughout the entire STARTUP-calculation: 15.9 MB
-------------------------------------------------------------------------------
                                 ORCA GUESS
                   Start orbitals & Density for SCF / CASSCF
-------------------------------------------------------------------------------

------------
SCF SETTINGS
------------
Hamiltonian:
 Density Functional     Method          .... DFT(GTOs)
 Exchange Functional    Exchange        .... B88
   X-Alpha parameter    XAlpha          ....  0.666667
   Becke's b parameter  XBeta           ....  0.004200
 Correlation Functional Correlation     .... LYP
 LDA part of GGA corr.  LDAOpt          .... VWN-5
 Gradients option       PostSCFGGA      .... off
 Hybrid DFT is turned on
   Fraction HF Exchange ScalHFX         ....  0.200000
   Scaling of DF-GGA-X  ScalDFX         ....  0.720000
   Scaling of DF-GGA-C  ScalDFC         ....  0.810000
   Scaling of DF-LDA-C  ScalLDAC        ....  1.000000
   Perturbative correction              ....  0.000000
   NL short-range parameter             ....  4.800000
 RI-approximation to the Coulomb term is turned on
   Number of AuxJ basis functions       .... 213
   RIJ-COSX (HFX calculated with COS-X)).... on


General Settings:
 Integral files         IntName         .... molecule
 Hartree-Fock type      HFTyp           .... RHF
 Total Charge           Charge          ....    0
 Multiplicity           Mult            ....    1
 Number of Electrons    NEL             ....   26
 Basis Dimension        Dim             ....   72
 Nuclear Repulsion      ENuc            ....     82.0261454017 Eh

Convergence Acceleration:
 AO-DIIS                CNVDIIS         .... on
   Start iteration      DIISMaxIt       ....    12
   Startup error        DIISStart       ....  0.200000
   # of expansion vecs  DIISMaxEq       ....     5
   Bias factor          DIISBfac        ....   1.050
   Max. coefficient     DIISMaxC        ....  10.000
 MO-DIIS                CNVKDIIS        .... off
 Trust-Rad. Augm. Hess. CNVTRAH         .... auto
   Auto Start mean grad. ratio tolernc. ....  1.125000
   Auto Start start iteration           ....    50
   Auto Start num. interpolation iter.  ....    10
   Max. Number of Micro iterations      ....    24
   Max. Number of Macro iterations      .... Maxiter - #DIIS iter
   Number of Davidson start vectors     ....     2
   Converg. threshold    (grad. norm)   ....   1.000e-05
   Grad. Scal. Fac. for Micro threshold ....   0.100
   Minimum threshold for Micro iter.    ....   1.000e-02
   NR start threshold (gradient norm)   ....   1.000e-04
   Initial trust radius                 ....   0.400
   Minimum AH scaling param. (alpha)    ....   1.000
   Maximum AH scaling param. (alpha)    .... 1000.000
   Quad. conv. algorithm                .... NR
   White noise on init. David. guess    .... on
   Maximum white noise                  ....   0.010
   Pseudo random numbers                .... off
   Inactive MOs                         .... canonical
   Orbital update algorithm             .... Taylor
   Preconditioner                       .... Diag
   Full preconditioner red. dimension   ....   250
 SOSCF                  CNVSOSCF        .... on
   Start iteration      SOSCFMaxIt      ....   150
   Startup grad/error   SOSCFStart      ....  0.003300
   Hessian update       SOSCFHessUp     .... L-BFGS
 Level Shifting         CNVShift        .... on
   Level shift para.    LevelShift      ....    0.2500
   Turn off err/grad.   ShiftErr        ....    0.0010
 Zerner damping         CNVZerner       .... off
 Static damping         CNVDamp         .... on
   Fraction old density DampFac         ....    0.7000
   Max. Damping (<1)    DampMax         ....    0.9800
   Min. Damping (>=0)   DampMin         ....    0.0000
   Turn off err/grad.   DampErr         ....    0.1000

SCF Procedure:
 Maximum # iterations   MaxIter         ....   125
 SCF integral mode      SCFMode         .... Direct
   Integral package                     .... SHARK and LIBINT hybrid scheme
 Reset frequency        DirectResetFreq ....    20
 Integral Threshold     Thresh          ....  2.500e-11 Eh
 Primitive CutOff       TCut            ....  2.500e-12 Eh

Convergence Tolerance:
 Convergence Check Mode ConvCheckMode   .... Total+1el-Energy
 Convergence forced     ConvForced      .... 0
 Energy Change          TolE            ....  1.000e-08 Eh
 1-El. energy change                    ....  1.000e-05 Eh
 Orbital Gradient       TolG            ....  1.000e-05
 Orbital Rotation angle TolX            ....  1.000e-05
 DIIS Error             TolErr          ....  5.000e-07

------------------------------
INITIAL GUESS: MODEL POTENTIAL
------------------------------
Loading Hartree-Fock densities                     ... done
Calculating cut-offs                               ... done
Initializing the effective Hamiltonian             ... done
Setting up the integral package (SHARK)            ... done
Starting the Coulomb interaction                   ... done (   0.0 sec)
Making the grid                                    ... done (   0.0 sec)
Mapping shells                                     ... done
Starting the XC term evaluation                    ... done (   0.0 sec)
  promolecular density results
     # of electrons  =     25.996726277
     EX              =    -20.253491567
     EC              =     -0.847119682
     EX+EC           =    -21.100611249
Transforming the Hamiltonian                       ... done (   0.0 sec)
Diagonalizing the Hamiltonian                      ... done (   0.0 sec)
Back transforming the eigenvectors                 ... done (   0.0 sec)
Now organizing SCF variables                       ... done
                      ------------------
                      INITIAL GUESS DONE (   0.1 sec)
                      ------------------
             **** ENERGY FILE WAS UPDATED (molecule.en.tmp) ****
Finished Guess after   0.2 sec
Maximum memory used throughout the entire GUESS-calculation: 8.1 MB

-------------------------------------------------------------------------------------------
                                      ORCA LEAN-SCF
                              memory conserving SCF solver
-------------------------------------------------------------------------------------------

----------------------------------------D-I-I-S--------------------------------------------
Iteration    Energy (Eh)           Delta-E    RMSDP     MaxDP     DIISErr   Damp  Time(sec)
-------------------------------------------------------------------------------------------
               ***  Starting incremental Fock matrix formation  ***
    1    -154.6976075713856744     0.00e+00  5.51e-03  7.89e-02  2.37e-01  0.700   0.5
    2    -154.7582815346645475    -6.07e-02  3.72e-03  4.89e-02  1.08e-01  0.700   0.4
                               ***Turning on AO-DIIS***
    3    -154.7819905392913711    -2.37e-02  1.39e-03  1.49e-02  3.79e-02  0.700   0.4
    4    -154.7960162227316232    -1.40e-02  2.21e-03  2.03e-02  1.82e-02  0.000   0.3
    5    -154.8268527035575062    -3.08e-02  4.07e-04  4.52e-03  5.63e-03  0.000   0.3
                              *** Initializing SOSCF ***
---------------------------------------S-O-S-C-F--------------------------------------
Iteration    Energy (Eh)           Delta-E    RMSDP     MaxDP     MaxGrad    Time(sec)
--------------------------------------------------------------------------------------
    6    -154.8269806130801953    -1.28e-04  1.64e-04  1.78e-03  1.85e-03     0.3
               *** Restarting incremental Fock matrix formation ***
    7    -154.8270050373425875    -2.44e-05  1.04e-04  1.19e-03  1.82e-04     0.5
    8    -154.8270053495542129    -3.12e-07  2.88e-05  5.11e-04  1.72e-04     0.4
    9    -154.8270061972156668    -8.48e-07  1.43e-05  1.78e-04  2.83e-05     0.4
   10    -154.8270061958016299     1.41e-09  4.87e-06  6.35e-05  3.45e-05     0.4
                 **** Energy Check signals convergence ****

               *****************************************************
               *                     SUCCESS                       *
               *           SCF CONVERGED AFTER  10 CYCLES          *
               *****************************************************

Recomputing exchange energy using gridx3       ... done (    0.628 sec)
Old exchange energy                            :     -4.144012388 Eh
New exchange energy                            :     -4.144018039 Eh
Exchange energy change after final integration :     -0.000005651 Eh
Total energy after final integration           :   -154.827011847 Eh
             **** ENERGY FILE WAS UPDATED (molecule.en.tmp) ****

----------------
TOTAL SCF ENERGY
----------------

Total Energy       :       -154.82701184660155 Eh           -4213.05718 eV

Components:
Nuclear Repulsion  :         82.02614540168103 Eh            2232.04489 eV
Electronic Energy  :       -236.85315159748265 Eh           -6445.10192 eV
One Electron Energy:       -372.07875551997643 Eh          -10124.77767 eV
Two Electron Energy:        135.22560392249378 Eh            3679.67575 eV

Virial components:
Potential Energy   :       -308.24817257864424 Eh           -8387.85921 eV
Kinetic Energy     :        153.42116073204272 Eh            4174.80203 eV
Virial Ratio       :          2.00916334557665

DFT components:
N(Alpha)           :       12.999997364925 electrons
N(Beta)            :       12.999997364925 electrons
N(Total)           :       25.999994729850 electrons
E(X)               :      -16.444215292524 Eh       
E(C)               :       -1.007650555060 Eh       
E(XC)              :      -17.451865847584 Eh       

---------------
SCF CONVERGENCE
---------------

  Last Energy change         ...   -1.4140e-09  Tolerance :   1.0000e-08
  Last MAX-Density change    ...    6.3512e-05  Tolerance :   1.0000e-07
  Last RMS-Density change    ...    4.8695e-06  Tolerance :   5.0000e-09
  Last DIIS Error            ...    1.8474e-03  Tolerance :   5.0000e-07
  Last Orbital Gradient      ...    3.4489e-05  Tolerance :   1.0000e-05
  Last Orbital Rotation      ...    1.5192e-05  Tolerance :   1.0000e-05


----------------
ORBITAL ENERGIES
----------------

  NO   OCC          E(Eh)            E(eV) 
   0   2.0000     -19.116161      -520.1772 
   1   2.0000     -10.223747      -278.2023 
   2   2.0000     -10.176057      -276.9046 
   3   2.0000      -0.994095       -27.0507 
   4   2.0000      -0.735656       -20.0182 
   5   2.0000      -0.613079       -16.6827 
   6   2.0000      -0.495034       -13.4706 
   7   2.0000      -0.450962       -12.2713 
   8   2.0000      -0.426998       -11.6192 
   9   2.0000      -0.380077       -10.3424 
  10   2.0000      -0.366700        -9.9784 
  11   2.0000      -0.316563        -8.6141 
  12   2.0000      -0.261551        -7.1172 
  13   0.0000       0.051086         1.3901 
  14   0.0000       0.091145         2.4802 
  15   0.0000       0.109636         2.9834 
  16   0.0000       0.125236         3.4078 
  17   0.0000       0.138229         3.7614 
  18   0.0000       0.159640         4.3440 
  19   0.0000       0.210785         5.7357 
  20   0.0000       0.239416         6.5148 
  21   0.0000       0.422806        11.5051 
  22   0.0000       0.440079        11.9752 
  23   0.0000       0.477755        13.0004 
*Only the first 10 virtual orbitals were printed.

                    ********************************
                    * MULLIKEN POPULATION ANALYSIS *
                    ********************************

-----------------------
MULLIKEN ATOMIC CHARGES
-----------------------
   0 C :   -0.030649
   1 C :    0.186593
   2 O :   -0.335454
   3 H :    0.005378
   4 H :   -0.001385
   5 H :    0.020714
   6 H :   -0.011357
   7 H :    0.007755
   8 H :    0.158405
Sum of atomic charges:   -0.0000000

--------------------------------
MULLIKEN REDUCED ORBITAL CHARGES
--------------------------------
  0 C s       :     3.004534  s :     3.004534
      pz      :     1.013900  p :     2.997589
      px      :     0.985761
      py      :     0.997928
      dz2     :     0.005959  d :     0.028526
      dxz     :     0.005236
      dyz     :     0.004920
      dx2y2   :     0.006986
      dxy     :     0.005425

  1 C s       :     2.988772  s :     2.988772
      pz      :     0.863855  p :     2.759613
      px      :     0.961067
      py      :     0.934691
      dz2     :     0.015914  d :     0.065022
      dxz     :     0.011606
      dyz     :     0.013141
      dx2y2   :     0.013201
      dxy     :     0.011159

  2 O s       :     3.740895  s :     3.740895
      pz      :     1.614156  p :     4.581618
      px      :     1.786245
      py      :     1.181217
      dz2     :     0.002876  d :     0.012941
      dxz     :     0.002500
      dyz     :     0.003285
      dx2y2   :     0.001652
      dxy     :     0.002627

  3 H s       :     0.971206  s :     0.971206
      pz      :     0.009297  p :     0.023417
      px      :     0.005495
      py      :     0.008624

  4 H s       :     0.977859  s :     0.977859
      pz      :     0.005612  p :     0.023526
      px      :     0.005676
      py      :     0.012238

  5 H s       :     0.956184  s :     0.956184
      pz      :     0.012388  p :     0.023102
      px      :     0.005102
      py      :     0.005612

  6 H s       :     0.990298  s :     0.990298
      pz      :     0.011308  p :     0.021059
      px      :     0.005439
      py      :     0.004312

  7 H s       :     0.971195  s :     0.971195
      pz      :     0.003768  p :     0.021049
      px      :     0.005363
      py      :     0.011918

  8 H s       :     0.774246  s :     0.774246
      pz      :     0.016202  p :     0.067348
      px      :     0.020052
      py      :     0.031094



                     *******************************
                     * LOEWDIN POPULATION ANALYSIS *
                     *******************************

----------------------
LOEWDIN ATOMIC CHARGES
----------------------
   0 C :   -0.074504
   1 C :    0.073547
   2 O :   -0.156183
   3 H :    0.023828
   4 H :    0.016019
   5 H :    0.025412
   6 H :    0.000270
   7 H :    0.017840
   8 H :    0.073772

-------------------------------
LOEWDIN REDUCED ORBITAL CHARGES
-------------------------------
  0 C s       :     2.846040  s :     2.846040
      pz      :     1.065930  p :     3.155516
      px      :     1.031276
      py      :     1.058310
      dz2     :     0.015559  d :     0.072948
      dxz     :     0.012188
      dyz     :     0.012755
      dx2y2   :     0.019618
      dxy     :     0.012828

  1 C s       :     2.839186  s :     2.839186
      pz      :     0.947028  p :     2.943245
      px      :     1.020135
      py      :     0.976082
      dz2     :     0.038584  d :     0.144023
      dxz     :     0.023864
      dyz     :     0.027309
      dx2y2   :     0.031724
      dxy     :     0.022542

  2 O s       :     3.456685  s :     3.456685
      pz      :     1.641098  p :     4.675559
      px      :     1.769180
      py      :     1.265281
      dz2     :     0.004734  d :     0.023939
      dxz     :     0.003269
      dyz     :     0.006552
      dx2y2   :     0.003910
      dxy     :     0.005474

  3 H s       :     0.910426  s :     0.910426
      pz      :     0.025589  p :     0.065746
      px      :     0.017020
      py      :     0.023136

  4 H s       :     0.918992  s :     0.918992
      pz      :     0.013484  p :     0.064990
      px      :     0.016980
      py      :     0.034525

  5 H s       :     0.909140  s :     0.909140
      pz      :     0.035042  p :     0.065448
      px      :     0.016280
      py      :     0.014126

  6 H s       :     0.935059  s :     0.935059
      pz      :     0.035343  p :     0.064671
      px      :     0.016046
      py      :     0.013283

  7 H s       :     0.919749  s :     0.919749
      pz      :     0.010975  p :     0.062411
      px      :     0.015781
      py      :     0.035655

  8 H s       :     0.750377  s :     0.750377
      pz      :     0.044080  p :     0.175851
      px      :     0.053922
      py      :     0.077849



                      *****************************
                      * MAYER POPULATION ANALYSIS *
                      *****************************

  NA   - Mulliken gross atomic population
  ZA   - Total nuclear charge
  QA   - Mulliken gross atomic charge
  VA   - Mayer's total valence
  BVA  - Mayer's bonded valence
  FA   - Mayer's free valence

  ATOM       NA         ZA         QA         VA         BVA        FA
  0 C      6.0306     6.0000    -0.0306     4.0168     4.0168     0.0000
  1 C      5.8134     6.0000     0.1866     4.0756     4.0756    -0.0000
  2 O      8.3355     8.0000    -0.3355     2.0647     2.0647     0.0000
  3 H      0.9946     1.0000     0.0054     0.9891     0.9891    -0.0000
  4 H      1.0014     1.0000    -0.0014     0.9925     0.9925    -0.0000
  5 H      0.9793     1.0000     0.0207     0.9942     0.9942    -0.0000
  6 H      1.0114     1.0000    -0.0114     0.9702     0.9702    -0.0000
  7 H      0.9922     1.0000     0.0078     0.9756     0.9756     0.0000
  8 H      0.8416     1.0000     0.1584     1.0182     1.0182     0.0000

  Mayer bond orders larger than 0.100000
B(  0-C ,  1-C ) :   1.1069 B(  0-C ,  3-H ) :   0.9545 B(  0-C ,  4-H ) :   0.9681 
B(  0-C ,  5-H ) :   0.9682 B(  1-C ,  2-O ) :   1.0190 B(  1-C ,  6-H ) :   0.9538 
B(  1-C ,  7-H ) :   0.9511 B(  2-O ,  8-H ) :   0.9837 

-------
TIMINGS
-------

Total SCF time: 0 days 0 hours 0 min 4 sec 

Total time                  ....       4.736 sec
Sum of individual times     ....       4.660 sec  ( 98.4%)

SCF preparation             ....       0.077 sec  (  1.6%)
Fock matrix formation       ....       4.234 sec  ( 89.4%)
  Startup                   ....       0.045 sec  (  1.1% of F)
  Split-RI-J                ....       0.300 sec  (  7.1% of F)
  Chain of spheres X        ....       2.737 sec  ( 64.6% of F)
  XC integration            ....       1.005 sec  ( 23.7% of F)
    XC Preparation          ....       0.000 sec  (  0.0% of XC)
    Basis function eval.    ....       0.379 sec  ( 37.7% of XC)
    Density eval.           ....       0.149 sec  ( 14.8% of XC)
    XC-Functional eval.     ....       0.097 sec  (  9.6% of XC)
    XC-Potential eval.      ....       0.194 sec  ( 19.3% of XC)
Diagonalization             ....       0.000 sec  (  0.0%)
Density matrix formation    ....       0.100 sec  (  2.1%)
Total Energy calculation    ....       0.037 sec  (  0.8%)
Population analysis         ....       0.025 sec  (  0.5%)
Orbital Transformation      ....       0.021 sec  (  0.5%)
Orbital Orthonormalization  ....       0.000 sec  (  0.0%)
DIIS solution               ....       0.117 sec  (  2.5%)
SOSCF solution              ....       0.050 sec  (  1.0%)
Finished LeanSCF after   4.8 sec

Maximum memory used throughout the entire LEANSCF-calculation: 8.3 MB

------------------------------------------------------------------------------
                         ORCA PROPERTY INTEGRAL CALCULATIONS
------------------------------------------------------------------------------

GBWName                                   ... molecule.gbw
Number of atoms                           ...      9
Number of basis functions                 ...     72
Max core memory                           ...   1024 MB

Dipole integrals                          ... YES
Quadrupole integrals                      ...  NO
Linear momentum integrals                 ...  NO
Angular momentum integrals                ...  NO
Higher moments length integrals           ...  NO
Higher moments velocity integrals         ...  NO
Kinetic energy integrals                  ...  NO
GIAO right hand sides                     ...  NO
GIAO dipole derivative integrals          ...  NO
SOC integrals                             ...  NO
EPR diamagnetic integrals (GIAO)          ...  NO
EPR gauge integrals                       ...  NO
Field gradient integrals                  ...  NO (   0 nuclei)
Spin-dipole/Fermi contact integrals       ...  NO (   0 nuclei)
Contact density integrals                 ...  NO (   0 nuclei)
Nucleus-orbit integrals                   ...  NO (   0 nuclei)
Geometric perturbations                   ...  NO (   9 nuclei)

Choice of electric origin   ... Center of mass
Position of electric origin ... (  4.2593, -0.6081, -0.7959) 
Choice of magnetic origin   ... GIAO
Position of magnetic origin ... (  0.0000,  0.0000,  0.0000) 

Calculating integrals                     ... Electric Dipole (Length)     done (  0.0 sec)

Property integrals calculated in   0.0 sec

Maximum memory used throughout the entire PROPINT-calculation: 6.7 MB


-------------------------------------------------------------------------------
                          DFT DISPERSION CORRECTION                            
                                                                               
                                DFTD4 V3.4.0                                   
-------------------------------------------------------------------------------
The B3LYP functional is recognized
Active option DFTDOPT                   ...         5   

-------------------------   ----------------
Dispersion correction           -0.005905181
-------------------------   ----------------


-------------------------   --------------------
FINAL SINGLE POINT ENERGY      -154.832917027599
-------------------------   --------------------

------------------------------------------------------------------------------
                         ORCA SCF GRADIENT CALCULATION
------------------------------------------------------------------------------

Nuc. rep. gradient        (SHARK) ... done (  0.0 sec)
HCore & Overlap gradient  (SHARK) ... done (  0.0 sec)
Split-RIJ-J gradient      (SHARK) ... done (  0.1 sec)
COSX-gradient                     ... done (  2.8 sec)
XC gradient                       ... done (  0.5 sec)
Dispersion correction             ... done (  0.0 sec)

-------------------
DISPERSION GRADIENT
-------------------

   1   C   :   -0.000180628    0.000046979    0.000052355
   2   C   :    0.000039941    0.000052943    0.000073944
   3   O   :    0.000190040   -0.000148168   -0.000098332
   4   H   :   -0.000066230    0.000029512    0.000027108
   5   H   :   -0.000058740    0.000003917    0.000013192
   6   H   :   -0.000052892    0.000020046   -0.000003392
   7   H   :    0.000038949   -0.000005629   -0.000011517
   8   H   :    0.000035238   -0.000005338   -0.000017360
   9   H   :    0.000054322    0.000005738   -0.000035998

Difference to translation invariance:
           :   -0.0000000000    0.0000000000    0.0000000000

Difference to rotation invariance:
           :    0.0000000000    0.0000000000    0.0000000000

Norm of the Dispersion gradient    ...    0.0003681773
RMS gradient                       ...    0.0000708557
MAX gradient                       ...    0.0001900400

------------------
CARTESIAN GRADIENT
------------------

   1   C   :   -0.000865237   -0.004532180   -0.001432083
   2   C   :    0.004611769    0.016359855    0.009742113
   3   O   :   -0.003375838    0.000672379    0.002991442
   4   H   :    0.004641709   -0.002876337   -0.004239359
   5   H   :    0.002344746    0.004975580   -0.003400082
   6   H   :    0.000728579   -0.002396182    0.003890962
   7   H   :   -0.001792164   -0.002805691   -0.011016654
   8   H   :   -0.004110860   -0.003406096    0.002499553
   9   H   :   -0.002182703   -0.005991327    0.000964109

Difference to translation invariance:
           :    0.0000000000    0.0000000000   -0.0000000000

Difference to rotation invariance:
           :   -0.0000092689   -0.0000119867    0.0000038779

Norm of the Cartesian gradient     ...    0.0273453043
RMS gradient                       ...    0.0052626063
MAX gradient                       ...    0.0163598550

-------
TIMINGS
-------

Total SCF gradient time     ....        3.490 sec

Densities                   ....       0.000 sec  (  0.0%)
One electron gradient       ....       0.022 sec  (  0.6%)
RI-J Coulomb gradient       ....       0.142 sec  (  4.1%)
COSX gradient               ....       2.819 sec  ( 80.8%)
XC gradient                 ....       0.473 sec  ( 13.5%)

Maximum memory used throughout the entire SCFGRAD-calculation: 26.4 MB
------------------------------------------------------------------------------
                         ORCA GEOMETRY RELAXATION STEP
------------------------------------------------------------------------------

Reading the OPT-File                    .... done
Getting information on internals        .... done
Copying old internal coords+grads       .... done
Making the new internal coordinates     .... (2022 redundants) done
Validating the new internal coordinates .... (2022 redundants) done
Calculating the B-matrix                .... done
Calculating the G,G- and P matrices     .... done
Transforming gradient to internals      .... done
Projecting the internal gradient        .... done
Number of atoms                         ....   9
Number of internal coordinates          ....  30
Current Energy                          ....  -154.832917028 Eh
Current gradient norm                   ....     0.027345304 Eh/bohr
Maximum allowed component of the step   ....  0.300
Current trust radius                    ....  0.300
Evaluating the initial hessian          ....  (Almloef) done
Projecting the Hessian                  .... done
Forming the augmented Hessian           .... done
Diagonalizing the augmented Hessian     .... done
Last element of RFO vector              ....  0.994807037
Lowest eigenvalues of augmented Hessian:
 -0.002059670  0.012444913  0.019880246  0.107702001  0.132853354
Length of the computed step             ....  0.102310261
The final length of the internal step   ....  0.102310261
Converting the step to Cartesian space:
 Initial RMS(Int)=    0.0186792126
Transforming coordinates:
 Iter   0:  RMS(Cart)=    0.0306602819 RMS(Int)=    0.0187424772
done
Storing new coordinates                 .... done

                                .--------------------.
          ----------------------|Geometry convergence|-------------------------
          Item                value                   Tolerance       Converged
          ---------------------------------------------------------------------
          RMS gradient        0.0043887283            0.0000300000      NO
          MAX gradient        0.0108016118            0.0001000000      NO
          RMS step            0.0186792126            0.0006000000      NO
          MAX step            0.0395756883            0.0010000000      NO
          ........................................................
          Max(Bonds)      0.0143      Max(Angles)    2.03
          Max(Dihed)        2.27      Max(Improp)    0.00
          ---------------------------------------------------------------------

The optimization has not yet converged - more geometry cycles are needed


    ---------------------------------------------------------------------------
                         Redundant Internal Coordinates
                            (Angstroem and degrees)

        Definition                    Value    dE/dq     Step     New-Value
    ----------------------------------------------------------------------------
     1. B(C   1,C   0)                1.5143 -0.006879  0.0092    1.5235   
     2. B(O   2,C   1)                1.4199 -0.001335  0.0014    1.4213   
     3. B(H   3,C   0)                1.0935 -0.006380  0.0094    1.1030   
     4. B(H   4,C   0)                1.0949 -0.006023  0.0090    1.1039   
     5. B(H   5,C   0)                1.0950 -0.004396  0.0065    1.1015   
     6. B(H   6,C   1)                1.0943 -0.009610  0.0143    1.1086   
     7. B(H   7,C   1)                1.0939 -0.005066  0.0075    1.1014   
     8. B(H   8,O   2)                0.9724  0.006434 -0.0068    0.9656   
     9. A(C   1,C   0,H   5)          110.62  0.001561   -0.21    110.41   
    10. A(H   3,C   0,H   4)          108.77  0.002440   -0.59    108.18   
    11. A(H   3,C   0,H   5)          108.85  0.000995   -0.18    108.67   
    12. A(C   1,C   0,H   4)          110.73  0.000101   -0.01    110.72   
    13. A(C   1,C   0,H   3)          110.83 -0.003471    0.56    111.39   
    14. A(H   4,C   0,H   5)          106.92 -0.001502    0.42    107.34   
    15. A(H   6,C   1,H   7)          108.37  0.001006   -1.04    107.34   
    16. A(C   0,C   1,O   2)          110.06 -0.010802    2.03    112.09   
    17. A(O   2,C   1,H   7)          108.15  0.006341   -1.59    106.56   
    18. A(C   0,C   1,H   7)          110.48  0.000441   -0.46    110.02   
    19. A(O   2,C   1,H   6)          108.73 -0.001717    1.42    110.15   
    20. A(C   0,C   1,H   6)          110.97  0.004926   -0.41    110.56   
    21. A(C   1,O   2,H   8)          107.56  0.000753   -0.12    107.44   
    22. D(O   2,C   1,C   0,H   4)     59.77 -0.003731    2.27     62.03   
    23. D(H   6,C   1,C   0,H   3)     60.17  0.003168   -0.97     59.20   
    24. D(O   2,C   1,C   0,H   3)   -179.43 -0.002903    1.89   -177.54   
    25. D(H   6,C   1,C   0,H   4)    -60.64  0.002340   -0.59    -61.22   
    26. D(H   6,C   1,C   0,H   5)   -178.99  0.003154   -0.97   -179.96   
    27. D(O   2,C   1,C   0,H   5)    -58.59 -0.002917    1.89    -56.70   
    28. D(H   8,O   2,C   1,C   0)    -59.93  0.000014   -0.91    -60.83   
    29. D(H   8,O   2,C   1,H   7)    179.30  0.002012   -0.57    178.73   
    30. D(H   8,O   2,C   1,H   6)     61.82 -0.001751    0.76     62.58   
    ----------------------------------------------------------------------------

Geometry step timings:
Preparation and reading OPT file:      0.001 s ( 8.492 %)
Internal coordinates            :      0.000 s ( 0.347 %)
B/P matrices and projection     :      0.000 s ( 3.111 %)
Hessian update/contruction      :      0.004 s (54.934 %)
Making the step                 :      0.000 s ( 1.763 %)
Converting the step to Cartesian:      0.000 s ( 5.381 %)
Storing new data                :      0.000 s ( 6.009 %)
Checking convergence            :      0.000 s ( 0.027 %)
Final printing                  :      0.001 s (19.856 %)
Total time                      :      0.007 s

Time for energy+gradient        :      9.238 s
Time for complete geometry iter :      9.444 s

         *************************************************************
         *                GEOMETRY OPTIMIZATION CYCLE   2            *
         *************************************************************
---------------------------------
CARTESIAN COORDINATES (ANGSTROEM)
---------------------------------
  C      1.059885    0.019846   -0.067431
  C      2.582988   -0.011143   -0.078483
  O      3.092338   -0.877341   -1.083637
  H      0.677359    0.727845    0.686868
  H      0.650531   -0.979864    0.159741
  H      0.674483    0.315556   -1.056077
  H      2.972880   -0.309247    0.915552
  H      2.978995    0.992692   -0.298857
  H      2.768731   -1.766353   -0.890695

----------------------------
CARTESIAN COORDINATES (A.U.)
----------------------------
  NO LB      ZA    FRAG     MASS         X           Y           Z
   0 C     6.0000    0    12.011    2.002893    0.037503   -0.127426
   1 C     6.0000    0    12.011    4.881139   -0.021057   -0.148311
   2 O     8.0000    0    15.999    5.843671   -1.657935   -2.047778
   3 H     1.0000    0     1.008    1.280022    1.375427    1.297993
   4 H     1.0000    0     1.008    1.229326   -1.851676    0.301866
   5 H     1.0000    0     1.008    1.274588    0.596314   -1.995696
   6 H     1.0000    0     1.008    5.617929   -0.584391    1.730142
   7 H     1.0000    0     1.008    5.629485    1.875916   -0.564758
   8 H     1.0000    0     1.008    5.232143   -3.337924   -1.683169

--------------------------------
INTERNAL COORDINATES (ANGSTROEM)
--------------------------------
 C      0   0   0     0.000000000000     0.00000000     0.00000000
 C      1   0   0     1.523457778836     0.00000000     0.00000000
 O      2   1   0     1.421292513087   112.07466355     0.00000000
 H      1   2   3     1.102976312689   111.39221749   182.45938595
 H      1   2   3     1.103901246236   110.72052402    62.03421235
 H      1   2   3     1.101544324144   110.41041344   303.29728918
 H      2   1   3     1.108596882347   110.52291459   236.74128440
 H      2   1   3     1.101394912838   110.02191051   118.37424210
 H      3   2   1     0.965551753447   107.43987727   299.13420200

---------------------------
INTERNAL COORDINATES (A.U.)
---------------------------
 C      0   0   0     0.000000000000     0.00000000     0.00000000
 C      1   0   0     2.878917978593     0.00000000     0.00000000
 O      2   1   0     2.685853605927   112.07466355     0.00000000
 H      1   2   3     2.084323163185   111.39221749   182.45938595
 H      1   2   3     2.086071034281   110.72052402    62.03421235
 H      1   2   3     2.081617097007   110.41041344   303.29728918
 H      2   1   3     2.094944500555   110.52291459   236.74128440
 H      2   1   3     2.081334750558   110.02191051   118.37424210
 H      3   2   1     1.824628382142   107.43987727   299.13420200

------------------------------------------------------------------------------
                   ___                                                        
                  /   \      - P O W E R E D   B Y -                         
                 /     \                                                     
                 |  |  |   _    _      __       _____    __    __             
                 |  |  |  | |  | |    /  \     |  _  \  |  |  /  |          
                  \  \/   | |  | |   /    \    | | | |  |  | /  /          
                 / \  \   | |__| |  /  /\  \   | |_| |  |  |/  /          
                |  |  |   |  __  | /  /__\  \  |    /   |      \           
                |  |  |   | |  | | |   __   |  |    \   |  |\   \          
                \     /   | |  | | |  |  |  |  | |\  \  |  | \   \       
                 \___/    |_|  |_| |__|  |__|  |_| \__\ |__|  \__/        
                                                                              
                      - O R C A' S   B I G   F R I E N D -                    
                                      &                                       
                       - I N T E G R A L  F E E D E R -                       
                                                                              
 v1 FN, 2020, v2 2021, v3 2022-2024                                           
------------------------------------------------------------------------------


----------------------
SHARK INTEGRAL PACKAGE
----------------------

Number of atoms                             ...      9
Number of basis functions                   ...     72
Number of shells                            ...     36
Maximum angular momentum                    ...      2
Integral batch strategy                     ... SHARK/LIBINT Hybrid
RI-J (if used) integral strategy            ... SPLIT-RIJ (Revised 2003 algorithm where possible)
Printlevel                                  ...      1
Contraction scheme used                     ... SEGMENTED contraction
Prescreening option                         ... SCHWARTZ
   Thresh                                   ... 2.500e-11
   Tcut                                     ... 2.500e-12
   Tpresel                                  ... 2.500e-12 
Coulomb Range Separation                    ... NOT USED
Exchange Range Separation                   ... NOT USED
Multipole approximations                    ... NOT USED
Finite Nucleus Model                        ... NOT USED
CABS basis                                  ... NOT available
Auxiliary Coulomb fitting basis             ... AVAILABLE
   # of basis functions in Aux-J            ...    213
   # of shells in Aux-J                     ...     75
   Maximum angular momentum in Aux-J        ...      4
Auxiliary J/K fitting basis                 ... NOT available
Auxiliary Correlation fitting basis         ... NOT available
Auxiliary 'external' fitting basis          ... NOT available

Checking pre-screening integrals            ... done (  0.0 sec) Dimension = 36
Check shell pair data                       ... done (  0.0 sec)
Shell pair information
Shell pair cut-off parameter TPreSel        ...   2.5e-12
Total number of shell pairs                 ...       666
Shell pairs after pre-screening             ...       664
Total number of primitive shell pairs       ...      2268
Primitive shell pairs kept                  ...      1960
          la=0 lb=0:    230 shell pairs
          la=1 lb=0:    251 shell pairs
          la=1 lb=1:     78 shell pairs
          la=2 lb=0:     63 shell pairs
          la=2 lb=1:     36 shell pairs
          la=2 lb=2:      6 shell pairs

Calculating one electron integrals          ... done (  0.0 sec)
Calculating RI/J V-Matrix + Cholesky decomp.... done (  0.0 sec)
Calculating Nuclear repulsion               ... done (  0.0 sec) ENN=     81.496631537602 Eh

Diagonalization of the overlap matrix:
Smallest eigenvalue                        ... 3.805e-03
Time for diagonalization                   ...    0.000 sec
Threshold for overlap eigenvalues          ... 1.000e-07
Number of eigenvalues below threshold      ... 0
Time for construction of square roots      ...    0.004 sec
Total time needed                          ...    0.006 sec

-------------------
DFT GRID GENERATION
-------------------

General Integration Accuracy     IntAcc      ... 4.388
Radial Grid Type                 RadialGrid  ... OptM3 with GC (2021)
Angular Grid (max. ang.)         AngularGrid ... 4 (Lebedev-302)
Angular grid pruning method      GridPruning ... 4 (adaptive)
Weight generation scheme         WeightScheme... mBecke (2022)
Basis function cutoff            BFCut       ... 1.0000e-11
Integration weight cutoff        WCut        ... 1.0000e-14
Partially contracted basis set               ... off
Rotationally invariant grid construction     ... off
Angular grids for H and He will be reduced by one unit

Total number of grid points                  ...    37732
Total number of batches                      ...      596
Average number of points per batch           ...       63
Average number of grid points per atom       ...     4192

--------------------
COSX GRID GENERATION
--------------------

GRIDX 1
-------
General Integration Accuracy     IntAcc      ... 3.816
Radial Grid Type                 RadialGrid  ... OptM3 with GC (2021)
Angular Grid (max. ang.)         AngularGrid ... 1 (Lebedev-50)
Angular grid pruning method      GridPruning ... 4 (adaptive)
Weight generation scheme         WeightScheme... mBecke (2022)
Basis function cutoff            BFCut       ... 1.0000e-11
Integration weight cutoff        WCut        ... 1.0000e-14
Partially contracted basis set               ... on
Rotationally invariant grid construction     ... off
Angular grids for H and He will be reduced by one unit

Total number of grid points                  ...     4881
Total number of batches                      ...       43
Average number of points per batch           ...      113
Average number of grid points per atom       ...      542
UseSFitting                                  ... on

GRIDX 2
-------
General Integration Accuracy     IntAcc      ... 4.020
Radial Grid Type                 RadialGrid  ... OptM3 with GC (2021)
Angular Grid (max. ang.)         AngularGrid ... 2 (Lebedev-110)
Angular grid pruning method      GridPruning ... 4 (adaptive)
Weight generation scheme         WeightScheme... mBecke (2022)
Basis function cutoff            BFCut       ... 1.0000e-11
Integration weight cutoff        WCut        ... 1.0000e-14
Partially contracted basis set               ... on
Rotationally invariant grid construction     ... off
Angular grids for H and He will be reduced by one unit

Total number of grid points                  ...    10209
Total number of batches                      ...       84
Average number of points per batch           ...      121
Average number of grid points per atom       ...     1134
UseSFitting                                  ... on

GRIDX 3
-------
General Integration Accuracy     IntAcc      ... 4.338
Radial Grid Type                 RadialGrid  ... OptM3 with GC (2021)
Angular Grid (max. ang.)         AngularGrid ... 3 (Lebedev-194)
Angular grid pruning method      GridPruning ... 4 (adaptive)
Weight generation scheme         WeightScheme... mBecke (2022)
Basis function cutoff            BFCut       ... 1.0000e-11
Integration weight cutoff        WCut        ... 1.0000e-14
Partially contracted basis set               ... on
Rotationally invariant grid construction     ... off
Angular grids for H and He will be reduced by one unit

Total number of grid points                  ...    22478
Total number of batches                      ...      179
Average number of points per batch           ...      125
Average number of grid points per atom       ...     2498
UseSFitting                                  ... on
Initializing property integral containers    ... done (  0.0 sec)

SHARK setup successfully completed in   0.4 seconds

Maximum memory used throughout the entire STARTUP-calculation: 15.9 MB
Occupation numbers will be reassigned to an Aufbau configuration
             **** ENERGY FILE WAS UPDATED (molecule.en.tmp) ****
Finished Guess after   0.1 sec
Maximum memory used throughout the entire GUESS-calculation: 6.6 MB
----------------------------------------D-I-I-S--------------------------------------------
Iteration    Energy (Eh)           Delta-E    RMSDP     MaxDP     DIISErr   Damp  Time(sec)
-------------------------------------------------------------------------------------------
               ***  Starting incremental Fock matrix formation  ***
    1    -154.8277480196279043     0.00e+00  2.45e-04  2.96e-03  7.36e-03  0.700   0.5
    2    -154.8278886752841572    -1.41e-04  2.31e-04  2.91e-03  5.76e-03  0.700   0.4
                               ***Turning on AO-DIIS***
    3    -154.8279956698585238    -1.07e-04  1.89e-04  2.44e-03  4.29e-03  0.700   0.3
                              *** Initializing SOSCF ***
---------------------------------------S-O-S-C-F--------------------------------------
Iteration    Energy (Eh)           Delta-E    RMSDP     MaxDP     MaxGrad    Time(sec)
--------------------------------------------------------------------------------------
    4    -154.8280726616054608    -7.70e-05  4.81e-04  6.16e-03  3.09e-03     0.3
               *** Restarting incremental Fock matrix formation ***
    5    -154.8282615565810829    -1.89e-04  3.86e-05  3.52e-04  7.32e-05     0.5
    6    -154.8282617158633911    -1.59e-07  1.48e-05  2.26e-04  7.36e-05     0.4
    7    -154.8282618849544292    -1.69e-07  4.76e-06  5.70e-05  1.21e-05     0.4
    8    -154.8282618881032704    -3.15e-09  2.04e-06  3.08e-05  1.47e-05     0.4
                 **** Energy Check signals convergence ****

               *****************************************************
               *                     SUCCESS                       *
               *           SCF CONVERGED AFTER   8 CYCLES          *
               *****************************************************

Recomputing exchange energy using gridx3       ... done (    0.578 sec)
Old exchange energy                            :     -4.139954950 Eh
New exchange energy                            :     -4.139962075 Eh
Exchange energy change after final integration :     -0.000007125 Eh
Total energy after final integration           :   -154.828269013 Eh
             **** ENERGY FILE WAS UPDATED (molecule.en.tmp) ****

----------------
TOTAL SCF ENERGY
----------------

Total Energy       :       -154.82826901323901 Eh           -4213.09139 eV

Components:
Nuclear Repulsion  :         81.49663153760200 Eh            2217.63609 eV
Electronic Energy  :       -236.32489342570528 Eh           -6430.72728 eV
One Electron Energy:       -371.02836192730467 Eh          -10096.19501 eV
Two Electron Energy:        134.70346850159939 Eh            3665.46773 eV

Virial components:
Potential Energy   :       -308.17936347000654 Eh           -8385.98682 eV
Kinetic Energy     :        153.35109445676753 Eh            4172.89543 eV
Virial Ratio       :          2.00963263132685

DFT components:
N(Alpha)           :       12.999996201863 electrons
N(Beta)            :       12.999996201863 electrons
N(Total)           :       25.999992403725 electrons
E(X)               :      -16.429954447921 Eh       
E(C)               :       -1.006565095890 Eh       
E(XC)              :      -17.436519543811 Eh       

---------------
SCF CONVERGENCE
---------------

  Last Energy change         ...    3.1488e-09  Tolerance :   1.0000e-08
  Last MAX-Density change    ...    3.0846e-05  Tolerance :   1.0000e-07
  Last RMS-Density change    ...    2.0359e-06  Tolerance :   5.0000e-09
  Last DIIS Error            ...    3.0854e-03  Tolerance :   5.0000e-07
  Last Orbital Gradient      ...    1.4745e-05  Tolerance :   1.0000e-05
  Last Orbital Rotation      ...    7.4557e-06  Tolerance :   1.0000e-05


Total SCF time: 0 days 0 hours 0 min 3 sec 
Finished LeanSCF after   3.9 sec

Maximum memory used throughout the entire LEANSCF-calculation: 8.5 MB

------------------------------------------------------------------------------
                         ORCA PROPERTY INTEGRAL CALCULATIONS
------------------------------------------------------------------------------

GBWName                                   ... molecule.gbw
Number of atoms                           ...      9
Number of basis functions                 ...     72
Max core memory                           ...   1024 MB

Dipole integrals                          ... YES
Quadrupole integrals                      ...  NO
Linear momentum integrals                 ...  NO
Angular momentum integrals                ...  NO
Higher moments length integrals           ...  NO
Higher moments velocity integrals         ...  NO
Kinetic energy integrals                  ...  NO
GIAO right hand sides                     ...  NO
GIAO dipole derivative integrals          ...  NO
SOC integrals                             ...  NO
EPR diamagnetic integrals (GIAO)          ...  NO
EPR gauge integrals                       ...  NO
Field gradient integrals                  ...  NO (   0 nuclei)
Spin-dipole/Fermi contact integrals       ...  NO (   0 nuclei)
Contact density integrals                 ...  NO (   0 nuclei)
Nucleus-orbit integrals                   ...  NO (   0 nuclei)
Geometric perturbations                   ...  NO (   9 nuclei)

Choice of electric origin   ... Center of mass
Position of electric origin ... (  4.2676, -0.6136, -0.8030) 
Choice of magnetic origin   ... GIAO
Position of magnetic origin ... (  0.0000,  0.0000,  0.0000) 

Calculating integrals                     ... Electric Dipole (Length)     done (  0.0 sec)

Property integrals calculated in   0.0 sec

Maximum memory used throughout the entire PROPINT-calculation: 6.7 MB


-------------------------------------------------------------------------------
                          DFT DISPERSION CORRECTION                            
                                                                               
                                DFTD4 V3.4.0                                   
-------------------------------------------------------------------------------
-------------------------   ----------------
Dispersion correction           -0.005878088
-------------------------   ----------------


-------------------------   --------------------
FINAL SINGLE POINT ENERGY      -154.834147101603
-------------------------   --------------------

------------------------------------------------------------------------------
                         ORCA SCF GRADIENT CALCULATION
------------------------------------------------------------------------------

Nuc. rep. gradient        (SHARK) ... done (  0.0 sec)
HCore & Overlap gradient  (SHARK) ... done (  0.0 sec)
Split-RIJ-J gradient      (SHARK) ... done (  0.1 sec)
COSX-gradient                     ... done (  2.6 sec)
XC gradient                       ... done (  0.5 sec)
Dispersion correction             ... done (  0.0 sec)

-------------------
DISPERSION GRADIENT
-------------------

   1   C   :   -0.000185890    0.000050641    0.000054922
   2   C   :    0.000042233    0.000051547    0.000075181
   3   O   :    0.000201112   -0.000145841   -0.000103989
   4   H   :   -0.000066596    0.000028551    0.000026012
   5   H   :   -0.000064024    0.000004221    0.000015362
   6   H   :   -0.000055781    0.000020321   -0.000002508
   7   H   :    0.000039023   -0.000005019   -0.000011406
   8   H   :    0.000035347   -0.000008490   -0.000017764
   9   H   :    0.000054577    0.000004070   -0.000035810

Difference to translation invariance:
           :   -0.0000000000    0.0000000000   -0.0000000000

Difference to rotation invariance:
           :    0.0000000000    0.0000000000    0.0000000000

Norm of the Dispersion gradient    ...    0.0003796857
RMS gradient                       ...    0.0000730706
MAX gradient                       ...    0.0002011125

------------------
CARTESIAN GRADIENT
------------------

   1   C   :   -0.000369727   -0.000522196   -0.000144841
   2   C   :   -0.000216931    0.006766538    0.003900216
   3   O   :    0.000210164   -0.004717551   -0.001054177
   4   H   :    0.000486093    0.000624118   -0.000014594
   5   H   :    0.000519880   -0.000096550   -0.001262656
   6   H   :   -0.000248103   -0.000689810    0.000047971
   7   H   :    0.000749252   -0.002220825   -0.001802120
   8   H   :   -0.001219740   -0.000037800    0.000308030
   9   H   :    0.000089112    0.000894077    0.000022172

Difference to translation invariance:
           :    0.0000000000    0.0000000001   -0.0000000000

Difference to rotation invariance:
           :    0.0000085209   -0.0000361356    0.0000275474

Norm of the Cartesian gradient     ...    0.0099528117
RMS gradient                       ...    0.0019154195
MAX gradient                       ...    0.0067665376

-------
TIMINGS
-------

Total SCF gradient time     ....        3.299 sec

Densities                   ....       0.000 sec  (  0.0%)
One electron gradient       ....       0.015 sec  (  0.5%)
RI-J Coulomb gradient       ....       0.119 sec  (  3.6%)
COSX gradient               ....       2.632 sec  ( 79.8%)
XC gradient                 ....       0.500 sec  ( 15.2%)

Maximum memory used throughout the entire SCFGRAD-calculation: 26.4 MB
------------------------------------------------------------------------------
                         ORCA GEOMETRY RELAXATION STEP
------------------------------------------------------------------------------

Reading the OPT-File                    .... done
Getting information on internals        .... done
Copying old internal coords+grads       .... done
Making the new internal coordinates     .... (2022 redundants) done
Validating the new internal coordinates .... (2022 redundants) done
Calculating the B-matrix                .... done
Calculating the G,G- and P matrices     .... done
Transforming gradient to internals      .... done
Projecting the internal gradient        .... done
Number of atoms                         ....   9
Number of internal coordinates          ....  30
Current Energy                          ....  -154.834147102 Eh
Current gradient norm                   ....     0.009952812 Eh/bohr
[...]
      3      -0.187692   0.007641   0.007849   0.042140   0.020012   0.131712
      4       0.151046   0.068263   0.098122  -0.085486   0.034494  -0.007376
      5       0.037487   0.239477  -0.031449  -0.018338  -0.018540  -0.046657
      6       0.080232   0.011267  -0.021224   0.013258  -0.021700  -0.027713
      7      -0.108505  -0.070902  -0.010891   0.033513  -0.027558  -0.023822
      8      -0.115562  -0.120682   0.010210  -0.042745   0.027112   0.011120
      9       0.065225   0.335783   0.074311  -0.291932  -0.441397   0.220537
     10       0.095514  -0.082934   0.146755  -0.080073  -0.042611   0.140004
     11      -0.073958   0.134518  -0.128208  -0.042228  -0.231894   0.062366
     12      -0.025058   0.043945  -0.305248  -0.231288  -0.318422   0.208898
     13      -0.000374   0.060776   0.005915   0.090450   0.165297  -0.144064
     14      -0.078281   0.254428  -0.078293  -0.102343  -0.021114  -0.176483
     15       0.449467  -0.445444   0.241941  -0.114992  -0.449828   0.159317
     16       0.056939   0.090032   0.153602  -0.126279   0.074632  -0.122276
     17      -0.034158   0.088422   0.030004   0.058023   0.229945  -0.109747
     18      -0.268915  -0.085685  -0.426264  -0.553568   0.030899  -0.401416
     19      -0.225136   0.477349   0.114001   0.305829  -0.116147   0.066802
     20      -0.058005   0.385159   0.145219   0.328859  -0.074812   0.180268
     21      -0.293140  -0.094120   0.558402  -0.047016  -0.275658  -0.534814
     22       0.265005   0.024006  -0.126470  -0.097263   0.209287   0.333961
     23       0.415995  -0.132427  -0.069453  -0.184002   0.230854   0.281626
     24      -0.242258   0.108207   0.217708  -0.214715   0.180696   0.120942
     25       0.088160  -0.127391  -0.159496   0.187062  -0.154165  -0.114006
     26       0.370792  -0.204954  -0.359496   0.386003  -0.304440  -0.221362
                 18         19         20         21         22         23    
      0       0.007888   0.018642  -0.007654   0.000998  -0.050246  -0.003829
      1       0.032486   0.030683  -0.009357   0.000664  -0.012801   0.032696
      2      -0.032858   0.028853  -0.009285  -0.005792   0.006319  -0.006501
      3       0.009576  -0.038208  -0.025943   0.034892   0.004360  -0.023346
      4       0.025831   0.003282  -0.058109  -0.009246   0.001904  -0.072928
      5      -0.022376   0.000817  -0.059661   0.067694   0.001306   0.027819
      6      -0.006402   0.001278  -0.001670  -0.000990  -0.000185   0.000956
      7      -0.008140  -0.005963  -0.003354   0.001538   0.000057   0.000893
      8       0.009286  -0.003464  -0.006357   0.001305   0.000285  -0.001171
      9      -0.048692   0.259715  -0.143344  -0.009979   0.167431   0.067402
     10      -0.515946   0.068627  -0.033363   0.034188  -0.342685  -0.131962
     11       0.463658   0.092366  -0.051590   0.033773  -0.354004  -0.147908
     12      -0.343136  -0.223019   0.121937  -0.016777   0.255006  -0.086348
     13       0.251446  -0.020451   0.001571  -0.041586   0.632046  -0.208739
     14       0.314308  -0.542375   0.238917   0.007690  -0.157509   0.053020
     15       0.278452  -0.236492   0.117474   0.009187   0.158880   0.066039
     16      -0.281161  -0.555247   0.247310  -0.008726  -0.136406  -0.046294
     17      -0.222124  -0.058050   0.022443   0.026886   0.436154   0.176444
     18      -0.048417   0.217568   0.178037  -0.334106  -0.013866  -0.060521
     19      -0.027786   0.230475   0.610091   0.267652   0.010354   0.034165
     20      -0.018966  -0.020702   0.075770  -0.876331  -0.028977  -0.136064
     21      -0.006548   0.189802   0.165344  -0.057885  -0.017165   0.329528
     22       0.056817  -0.021804   0.026638  -0.177644  -0.039036   0.830231
     23       0.069987   0.255987   0.618169   0.050607   0.009121  -0.188279
     24       0.061870   0.005280  -0.012594  -0.002364  -0.000598  -0.007478
     25      -0.049048  -0.011665   0.004882   0.003965   0.004663  -0.012188
     26      -0.096114  -0.025780   0.018730  -0.000948  -0.000162   0.007346
                 24         25         26    
      0       0.005215  -0.003426   0.000220
      1      -0.085809   0.000519   0.000618
      2      -0.003674  -0.092949   0.000079
      3      -0.009191  -0.000015  -0.001686
      4      -0.029480   0.006971  -0.001740
      5       0.010875  -0.007874   0.001694
      6       0.000335   0.000008  -0.018887
      7       0.000799   0.000086  -0.058615
      8      -0.000224   0.000577   0.009869
      9      -0.210170  -0.183791  -0.001829
     10       0.394157   0.359797   0.001179
     11       0.428920   0.364408   0.001067
     12       0.245555  -0.058384   0.000751
     13       0.576402  -0.139360  -0.003558
     14      -0.148393   0.019522   0.000779
     15      -0.089480   0.282912   0.000241
     16       0.055512  -0.224950  -0.000419
     17      -0.234204   0.728491  -0.000213
     18      -0.026384   0.027512  -0.001080
     19       0.018643  -0.019830   0.003049
     20      -0.060132   0.064371   0.001849
     21       0.128755  -0.027245   0.005807
     22       0.317600  -0.065796   0.012327
     23      -0.073160   0.017051  -0.006189
     24      -0.006217  -0.000137   0.313348
     25      -0.001245  -0.000462   0.931135
     26       0.004722  -0.001618  -0.175055


-----------
IR SPECTRUM
-----------

 Mode   freq       eps      Int      T**2         TX        TY        TZ
       cm**-1   L/(mol*cm) km/mol    a.u.
----------------------------------------------------------------------------
  6:    275.72   0.001092    5.52  0.001236  ( 0.026674  0.002276  0.022791)
  7:    313.99   0.022143  111.90  0.022007  ( 0.123526 -0.045079  0.068674)
  8:    426.14   0.003914   19.78  0.002866  ( 0.046214 -0.001795  0.026967)
  9:    804.86   0.000508    2.57  0.000197  (-0.002095  0.000657 -0.013857)
 10:    896.79   0.001436    7.26  0.000500  ( 0.007857 -0.012865 -0.016507)
 11:   1061.93   0.003060   15.47  0.000899  ( 0.000437  0.019788  0.022529)
 12:   1096.00   0.019777   99.94  0.005631  (-0.041004  0.044119  0.044758)
 13:   1142.55   0.004434   22.41  0.001211  (-0.006546  0.016446  0.029963)
 14:   1271.83   0.002446   12.36  0.000600  ( 0.012767 -0.010546 -0.018053)
 15:   1371.67   0.000295    1.49  0.000067  (-0.003002 -0.001656  0.007445)
 16:   1385.40   0.001347    6.81  0.000304  ( 0.002165 -0.008306 -0.015160)
 17:   1417.41   0.010253   51.82  0.002257  ( 0.033160 -0.021577 -0.026312)
 18:   1460.22   0.001556    7.86  0.000333  ( 0.005094 -0.016955  0.004371)
 19:   1467.76   0.000250    1.26  0.000053  (-0.001268 -0.005609 -0.004481)
 20:   1497.43   0.000093    0.47  0.000019  ( 0.003961 -0.001304 -0.001401)
 21:   2963.35   0.015820   79.95  0.001666  ( 0.018909  0.003186  0.036032)
 22:   3016.78   0.003075   15.54  0.000318  (-0.016850 -0.004731  0.003438)
 23:   3067.36   0.002931   14.81  0.000298  (-0.009005 -0.013620  0.005621)
 24:   3096.50   0.009270   46.85  0.000934  (-0.001526 -0.030505  0.001175)
 25:   3116.42   0.005024   25.39  0.000503  (-0.001143  0.002121 -0.022300)
 26:   3802.79   0.003818   19.30  0.000313  ( 0.001520  0.017622  0.000707)

* The epsilon (eps) is given for a Dirac delta lineshape.
** The dipole moment derivative (T) already includes vibrational overlap.

The first frequency considered to be a vibration is 6
The total number of vibrations considered is 21


--------------------------
THERMOCHEMISTRY AT 298.15K
--------------------------

Temperature         ...   298.15 K
Pressure            ...     1.00 atm
Total Mass          ...    46.07 AMU
Quasi RRHO          ...     True
Cut-Off Frequency   ...     1.00 cm^-1

Throughout the following assumptions are being made:
  (1) The electronic state is orbitally nondegenerate
  (2) There are no thermally accessible electronically excited states
  (3) Hindered rotations indicated by low frequency modes are not
      treated as such but are treated as vibrations and this may
      cause some error
  (4) All equations used are the standard statistical mechanics
      equations for an ideal gas
  (5) All vibrations are strictly harmonic

freq.     275.72  E(vib)   ...       0.28 
freq.     313.99  E(vib)   ...       0.25 
freq.     426.14  E(vib)   ...       0.18 
freq.     804.86  E(vib)   ...       0.05 
freq.     896.79  E(vib)   ...       0.03 
freq.    1061.93  E(vib)   ...       0.02 
freq.    1096.00  E(vib)   ...       0.02 
freq.    1142.55  E(vib)   ...       0.01 
freq.    1271.83  E(vib)   ...       0.01 
freq.    1371.67  E(vib)   ...       0.01 
freq.    1385.40  E(vib)   ...       0.00 
freq.    1417.41  E(vib)   ...       0.00 
freq.    1460.22  E(vib)   ...       0.00 
freq.    1467.76  E(vib)   ...       0.00 
freq.    1497.43  E(vib)   ...       0.00 
freq.    2963.35  E(vib)   ...       0.00 
freq.    3016.78  E(vib)   ...       0.00 
freq.    3067.36  E(vib)   ...       0.00 
freq.    3096.50  E(vib)   ...       0.00 
freq.    3116.42  E(vib)   ...       0.00 
freq.    3802.79  E(vib)   ...       0.00 

------------
INNER ENERGY
------------

The inner energy is: U= E(el) + E(ZPE) + E(vib) + E(rot) + E(trans)
    E(el)   - is the total energy from the electronic structure calculation
              = E(kin-el) + E(nuc-el) + E(el-el) + E(nuc-nuc)
    E(ZPE)  - the the zero temperature vibrational energy from the frequency calculation
    E(vib)  - the the finite temperature correction to E(ZPE) due to population
              of excited vibrational states
    E(rot)  - is the rotational thermal energy
    E(trans)- is the translational thermal energy

Summary of contributions to the inner energy U:
Electronic energy                ...   -154.83432196 Eh
Zero point energy                ...      0.07962857 Eh      49.97 kcal/mol
Thermal vibrational correction   ...      0.00139837 Eh       0.88 kcal/mol
Thermal rotational correction    ...      0.00141627 Eh       0.89 kcal/mol
Thermal translational correction ...      0.00141627 Eh       0.89 kcal/mol
-----------------------------------------------------------------------
Total thermal energy                   -154.75046247 Eh


Summary of corrections to the electronic energy:
(perhaps to be used in another calculation)
Total thermal correction                  0.00423091 Eh       2.65 kcal/mol
Non-thermal (ZPE) correction              0.07962857 Eh      49.97 kcal/mol
-----------------------------------------------------------------------
Total correction                          0.08385948 Eh      52.62 kcal/mol


--------
ENTHALPY
--------

The enthalpy is H = U + kB*T
                kB is Boltzmann's constant
Total thermal energy              ...   -154.75046247 Eh 
Thermal Enthalpy correction       ...      0.00094421 Eh       0.59 kcal/mol
-----------------------------------------------------------------------
Total Enthalpy                    ...   -154.74951826 Eh


Note: Only C1 symmetry has been detected, increase convergence thresholds 
      if your molecule has a higher symmetry. Symmetry factor of 1.0 is   
      used for the rotational entropy correction. 
 

Note: Rotational entropy computed according to Herzberg 
Infrared and Raman Spectra, Chapter V,1, Van Nostrand Reinhold, 1945 
Point Group:  C1, Symmetry Number:   1  
Rotational constants in cm-1:     1.144018     0.306263     0.270731 

Vibrational entropy computed according to the QRRHO of S. Grimme
Chem.Eur.J. 2012 18 9955 using a reference frequency of 100.0 cm-1


-------
ENTROPY
-------

The entropy contributions are T*S = T*(S(el)+S(vib)+S(rot)+S(trans))
     S(el)   - electronic entropy
     S(vib)  - vibrational entropy
     S(rot)  - rotational entropy
     S(trans)- translational entropy
The entropies will be listed as multiplied by the temperature to get
units of energy

Electronic entropy                ...      0.00000000 Eh      0.00 kcal/mol
Vibrational entropy               ...      0.00211099 Eh      1.32 kcal/mol
Rotational entropy                ...      0.01062277 Eh      6.67 kcal/mol
Translational entropy             ...      0.01777359 Eh     11.15 kcal/mol
-----------------------------------------------------------------------
Final entropy term                ...      0.03050735 Eh     19.14 kcal/mol

In case the symmetry of your molecule has not been determined correctly
or in case you have a reason to use a different symmetry number we print 
out the resulting rotational entropy values for sn=1,12:

 non-linear molecules -----------------------------------
|  sn= 1 | S(rot)=       0.01062277 Eh      6.67 kcal/mol|
|  sn= 2 | S(rot)=       0.00996831 Eh      6.26 kcal/mol|
|  sn= 3 | S(rot)=       0.00958548 Eh      6.01 kcal/mol|
|  sn= 4 | S(rot)=       0.00931386 Eh      5.84 kcal/mol|
|  sn= 5 | S(rot)=       0.00910317 Eh      5.71 kcal/mol|
|  sn= 6 | S(rot)=       0.00893102 Eh      5.60 kcal/mol|
|  sn= 7 | S(rot)=       0.00878548 Eh      5.51 kcal/mol|
|  sn= 8 | S(rot)=       0.00865940 Eh      5.43 kcal/mol|
|  sn= 9 | S(rot)=       0.00854819 Eh      5.36 kcal/mol|
|  sn=10 | S(rot)=       0.00844871 Eh      5.30 kcal/mol|
|  sn=11 | S(rot)=       0.00835872 Eh      5.25 kcal/mol|
|  sn=12 | S(rot)=       0.00827657 Eh      5.19 kcal/mol|
 linear molecules ---------------------------------------
|  Dinfh | S(rot)=       0.00655950 Eh      4.12 kcal/mol|
|  Cinfv | S(rot)=       0.00721396 Eh      4.53 kcal/mol|
 --------------------------------------------------------


-------------------
GIBBS FREE ENERGY
-------------------

The Gibbs free energy is G = H - T*S

Total enthalpy                    ...   -154.74951826 Eh 
Total entropy correction          ...     -0.03050735 Eh    -19.14 kcal/mol
-----------------------------------------------------------------------
Final Gibbs free energy         ...   -154.78002562 Eh

For completeness - the Gibbs free energy minus the electronic energy
G-E(el)                           ...      0.05429634 Eh     34.07 kcal/mol


Maximum memory used throughout the entire PROP-calculation: 26.5 MB

--------------------------------
SUGGESTED CITATIONS FOR THIS RUN
--------------------------------

Below you find a list of papers that are relevant to this ORCA run
We neither can nor want to force you to cite these papers, but we appreciate if you do
You receive ORCA, which is the product of decades of hard work by many enthusiastic individuals, for free
The only thing we kindly ask in return is that you cite our papers,
We deeply appreciate it, if you show your appreciation for ORCA by not just citing the generic ORCA reference.

Please note that relegating all ORCA citations to the supporting information does *not* help us.
SI sections are not indexed - citations you put there will not count into any citation statistics
But we need these citations in order to attract the funding resources that allow us to do what we are doing

Therefore, if you are a happy ORCA user, please consider citing a few of the papers listed below in the main body of your paper

In addition to the list printed below, the program has created the file molecule.bibtex that contains the list in bibtex format
You can import this file easily into all common literature databanks and citation aid programs


List of essential papers. We consider these as the minimum necessary citations

  1. Neese,F.
     Software update: the ORCA program system, version 5.0
     WIRES Comput. Molec. Sci., 2022 12(1)e1606
     doi.org/10.1002/wcms.1606

List of papers to cite with high priority. The work reported in these papers was absolutely
necessary for this run to complete.
Our perspective: the developers of density functionals and basis sets usually get cited in chemistry papers
Good! But without the algorithms to do something with them, the functionals or basis sets would not do anything.
Hence, in our opinion, the algorithm design and method developments papers are equally worthy of getting cited

  1. Neese,F.
     An improvement of the resolution of the identity approximation for the formation of the Coulomb matrix
     J. Comp. Chem., 2003 24(14)1740-1747
     doi.org/10.1002/jcc.10318
  2. Neese,F.; Wennmohs,F.; Hansen,A.; Becker,U.
     Efficient, approximate and parallel Hartree-Fock and hybrid DFT calculations. A 'chain-of-spheres' algorithm for the Hartree-Fock exchange
     Chem. Phys., 2009 356(1-3)98-109
     doi.org/10.1016/j.chemphys.2008.10.036
  3. Bykov,D.; Petrenko,T.; Izsak,R.; Kossmann,S.; Becker,U.; Valeev,E.; Neese,F.
     Efficient implementation of the analytic second derivatives of Hartree-Fock and hybrid DFT energies: a detailed analysis of different approximations
     Molec. Phys., 2015 113 1961-1977
     doi.org/10.1080/00268976.2015.1025114
  4. Helmich-Paris,B.; de Souza,B.; Neese,F.; Izsák,R.
     An improved chain of spheres for exchange algorithm
     J. Chem. Phys., 2021 155 104109
     doi.org/doi: 10.1063/5.0058766.
  5. Neese,F.
     The SHARK Integral Generation and Digestion System
     J. Comp. Chem., 2022  1-16
     doi.org/10.1002/jcc.26942
  6. Caldeweyher,E.; Bannwarth,C.; Grimme,S.
     Extension of the D3 dispersion coefficient model
     J. Chem. Phys., 2017 147 034112-XXXX
     doi.org/10.1063/1.4993215
  7. Caldeweyher,E.; Ehlert,S.; Hansen,A.; Neugebauer,H.; Spicher,S.; Bannwarth,C.; Grimme,S.
     A generally applicable atomic-charge dependent London dispersion correction
     J. Chem. Phys., 2019 150 154122-XXXX
     doi.org/10.1063/1.5090222
  8. Caldeweyher,E.; Mewes,J.; Ehlert,S.; Grimme,S.
     Extension and evaluation of the D4 London-dispersion model for periodic systems
     Phys. Chem. Chem. Phys., 2020 22(16)8499-8512
     doi.org/10.1039/D0CP00502A

List of suggested additional citations. These are papers that are important in the 'surrounding' of 
of this run, or papers that preceded the highly important papers. If you like your results we are grateful for a citation.

  1. Izsak,R.; Neese,F.
     An overlap fitted chain of spheres exchange method
     J. Chem. Phys., 2011 135 144105
     doi.org/10.1063/1.3646921
  2. Izsak,R.; Hansen,A.; Neese,F.
     The resolution of identity and chain of spheres approximations for the LPNO-CCSD singles Fock term
     Molec. Phys., 2012 110 2413-2417
     doi.org/10.1080/00268976.2012.687466
  3. Neese,F.
     The ORCA program system
     WIRES Comput. Molec. Sci., 2012 2(1)73-78
     doi.org/10.1002/wcms.81
  4. Izsak,R.; Neese,F.; Klopper,W.
     Robust fitting techniques in the chain of spheres approximation to the Fock exchange: The role of the complementary space
     J. Chem. Phys., 2013 139 
     doi.org/10.1063/1.4819264
  5. Neese,F.
     Software update: the ORCA program system, version 4.0
     WIRES Comput. Molec. Sci., 2018 8(1)1-6
     doi.org/10.1002/wcms.1327
  6. Neese,F.; Wennmohs,F.; Becker,U.; Riplinger,C.
     The ORCA quantum chemistry program package
     J. Chem. Phys., 2020 152 Art. No. L224108
     doi.org/10.1063/5.0004608

List of optional additional citations

  1. Neese,F.
     Approximate second-order SCF convergence for spin unrestricted wavefunctions
     Chem. Phys. Lett., 2000 325(1-3)93-98
     doi.org/10.1016/s0009-2614(00)00662-x

Timings for individual modules:

Sum of individual times          ...       92.722 sec (=   1.545 min)
Startup calculation              ...        3.009 sec (=   0.050 min)   3.2 %
SCF iterations                   ...       24.506 sec (=   0.408 min)  26.4 %
Property integrals               ...        9.046 sec (=   0.151 min)   9.8 %
SCF Response                     ...        5.468 sec (=   0.091 min)   5.9 %
Property calculations            ...       29.927 sec (=   0.499 min)  32.3 %
SCF Gradient evaluation          ...       20.678 sec (=   0.345 min)  22.3 %
Geometry relaxation              ...        0.088 sec (=   0.001 min)   0.1 %
                             ****ORCA TERMINATED NORMALLY****
TOTAL RUN TIME: 0 days 0 hours 1 minutes 34 seconds 644 msec
